159254
  -OEChem-12131701002D

 16 12  0     0  0  0  0  0  0999 V2000
    5.1535    0.0000    0.0000 Nd  0  1  0  0  0  0  0  0  0  0  0  0
    1.7320    4.5000    0.0000 O   0  0  0  0  0  0  0  0  0  0  0  0
    6.0010    4.0000    0.0000 O   0  0  0  0  0  0  0  0  0  0  0  0
    6.0010    7.5000    0.0000 O   0  0  0  0  0  0  0  0  0  0  0  0
    0.0000    4.5000    0.0000 O   0  5  0  0  0  0  0  0  0  0  0  0
    4.2690    4.0000    0.0000 O   0  5  0  0  0  0  0  0  0  0  0  0
    4.2690    7.5000    0.0000 O   0  5  0  0  0  0  0  0  0  0  0  0
    0.8660    3.0000    0.0000 O   0  0  0  0  0  0  0  0  0  0  0  0
    5.1350    2.5000    0.0000 O   0  0  0  0  0  0  0  0  0  0  0  0
    5.1350    6.0000    0.0000 O   0  0  0  0  0  0  0  0  0  0  0  0
    0.8660    4.0000    0.0000 N   0  3  0  0  0  0  0  0  0  0  0  0
    5.1350    3.5000    0.0000 N   0  3  0  0  0  0  0  0  0  0  0  0
    5.1350    7.0000    0.0000 N   0  3  0  0  0  0  0  0  0  0  0  0
    2.2690    4.1900    0.0000 H   0  0  0  0  0  0  0  0  0  0  0  0
    6.5380    3.6900    0.0000 H   0  0  0  0  0  0  0  0  0  0  0  0
    6.5380    7.1900    0.0000 H   0  0  0  0  0  0  0  0  0  0  0  0
  2 11  1  0  0  0  0
  2 14  1  0  0  0  0
  3 12  1  0  0  0  0
  3 15  1  0  0  0  0
  4 13  1  0  0  0  0
  4 16  1  0  0  0  0
  5 11  1  0  0  0  0
  6 12  1  0  0  0  0
  7 13  1  0  0  0  0
  8 11  2  0  0  0  0
  9 12  2  0  0  0  0
 10 13  2  0  0  0  0
M  CHG  7   1   3   5  -1   6  -1   7  -1  11   1  12   1  13   1
M  END
> <PUBCHEM_COMPOUND_CID>
159254

> <PUBCHEM_COMPOUND_CANONICALIZED>
1

> <PUBCHEM_CACTVS_COMPLEXITY>
24.8

> <PUBCHEM_CACTVS_HBOND_ACCEPTOR>
9

> <PUBCHEM_CACTVS_HBOND_DONOR>
3

> <PUBCHEM_CACTVS_ROTATABLE_BOND>
0

> <PUBCHEM_CACTVS_SUBSKEYS>
AAADcQADPAAAAAAAAAAAAAIAAAAAAAAAAAAAAAAAAAAAAAAAAAAAAAAECAAAAAAAAAAAAAAAQAABAAAAAQAAAAAAAAAAAAAAAAAAAAAAAAAAAAAAAAAAAAAAAAAAAAAAAAAAAAAAAAAAAAAAAAAAAAAAAA==

> <PUBCHEM_IUPAC_OPENEYE_NAME>
neodymium(3+);nitric acid

> <PUBCHEM_IUPAC_CAS_NAME>
neodymium(3+);nitric acid

> <PUBCHEM_IUPAC_NAME>
neodymium(3+);nitric acid

> <PUBCHEM_IUPAC_SYSTEMATIC_NAME>
neodymium(3+);nitric acid

> <PUBCHEM_IUPAC_TRADITIONAL_NAME>
neodymium(3+);nitric acid

> <PUBCHEM_IUPAC_INCHI>
InChI=1S/3HNO3.Nd/c3*2-1(3)4;/h3*(H,2,3,4);/q;;;+3

> <PUBCHEM_IUPAC_INCHIKEY>
NFQWQFFGWFDWQT-UHFFFAOYSA-N

> <PUBCHEM_EXACT_MASS>
330.895

> <PUBCHEM_MOLECULAR_FORMULA>
H3N3NdO9+3

> <PUBCHEM_MOLECULAR_WEIGHT>
333.278

> <PUBCHEM_OPENEYE_CAN_SMILES>
[N+](=O)(O)[O-].[N+](=O)(O)[O-].[N+](=O)(O)[O-].[Nd+3]

> <PUBCHEM_OPENEYE_ISO_SMILES>
[N+](=O)(O)[O-].[N+](=O)(O)[O-].[N+](=O)(O)[O-].[Nd+3]

> <PUBCHEM_CACTVS_TPSA>
198

> <PUBCHEM_MONOISOTOPIC_WEIGHT>
330.895

> <PUBCHEM_TOTAL_CHARGE>
3

> <PUBCHEM_HEAVY_ATOM_COUNT>
13

> <PUBCHEM_ATOM_DEF_STEREO_COUNT>
0

> <PUBCHEM_ATOM_UDEF_STEREO_COUNT>
0

> <PUBCHEM_BOND_DEF_STEREO_COUNT>
0

> <PUBCHEM_BOND_UDEF_STEREO_COUNT>
0

> <PUBCHEM_ISOTOPIC_ATOM_COUNT>
0

> <PUBCHEM_COMPONENT_COUNT>
4

> <PUBCHEM_CACTVS_TAUTO_COUNT>
1

> <PUBCHEM_COORDINATE_TYPE>
1
5
255

$$$$
