66243
  -OEChem-12131700282D

  6  3  0     0  0  0  0  0  0999 V2000
    3.7320    0.2500    0.0000 Si  0  0  0  0  0  0  0  0  0  0  0  0
    4.5981    0.7500    0.0000 O   0  5  0  0  0  0  0  0  0  0  0  0
    2.8660    0.7500    0.0000 O   0  5  0  0  0  0  0  0  0  0  0  0
    3.7320   -0.7500    0.0000 O   0  0  0  0  0  0  0  0  0  0  0  0
    5.4641    0.2500    0.0000 Li  0  3  0  0  0  0  0  0  0  0  0  0
    2.0000    0.2500    0.0000 Li  0  3  0  0  0  0  0  0  0  0  0  0
  1  2  1  0  0  0  0
  1  3  1  0  0  0  0
  1  4  2  0  0  0  0
M  CHG  4   2  -1   3  -1   5   1   6   1
M  END
> <PUBCHEM_COMPOUND_CID>
66243

> <PUBCHEM_COMPOUND_CANONICALIZED>
1

> <PUBCHEM_CACTVS_COMPLEXITY>
18.8

> <PUBCHEM_CACTVS_HBOND_ACCEPTOR>
3

> <PUBCHEM_CACTVS_HBOND_DONOR>
0

> <PUBCHEM_CACTVS_ROTATABLE_BOND>
0

> <PUBCHEM_CACTVS_SUBSKEYS>
AAADcQwAMAgAAAAAAAAAAAAAAAAAAAAAAAAAAAAAAAAAAAAAAAAAAAAAAEAAAAAAAAAAAAAAAAAAAAAAAAAAAAAAAAAAAAAAAAAAAAAAAAAAAAAAAAAAAAAAAAAAAAAAAAAAAAAAAAAAAAAAAAAAAAAAAA==

> <PUBCHEM_IUPAC_OPENEYE_NAME>
dilithium;dioxido(oxo)silane

> <PUBCHEM_IUPAC_CAS_NAME>
dilithium;dioxido(oxo)silane

> <PUBCHEM_IUPAC_NAME>
dilithium;dioxido(oxo)silane

> <PUBCHEM_IUPAC_SYSTEMATIC_NAME>
dilithium;bis(oxidanidyl)-oxidanylidene-silane

> <PUBCHEM_IUPAC_TRADITIONAL_NAME>
dilithium;keto(dioxido)silane

> <PUBCHEM_IUPAC_INCHI>
InChI=1S/2Li.O3Si/c;;1-4(2)3/q2*+1;-2

> <PUBCHEM_IUPAC_INCHIKEY>
PAZHGORSDKKUPI-UHFFFAOYSA-N

> <PUBCHEM_EXACT_MASS>
89.994

> <PUBCHEM_MOLECULAR_FORMULA>
Li2O3Si

> <PUBCHEM_MOLECULAR_WEIGHT>
89.962

> <PUBCHEM_OPENEYE_CAN_SMILES>
[Li+].[Li+].[O-][Si](=O)[O-]

> <PUBCHEM_OPENEYE_ISO_SMILES>
[Li+].[Li+].[O-][Si](=O)[O-]

> <PUBCHEM_CACTVS_TPSA>
63.2

> <PUBCHEM_MONOISOTOPIC_WEIGHT>
89.994

> <PUBCHEM_TOTAL_CHARGE>
0

> <PUBCHEM_HEAVY_ATOM_COUNT>
6

> <PUBCHEM_ATOM_DEF_STEREO_COUNT>
0

> <PUBCHEM_ATOM_UDEF_STEREO_COUNT>
0

> <PUBCHEM_BOND_DEF_STEREO_COUNT>
0

> <PUBCHEM_BOND_UDEF_STEREO_COUNT>
0

> <PUBCHEM_ISOTOPIC_ATOM_COUNT>
0

> <PUBCHEM_COMPONENT_COUNT>
3

> <PUBCHEM_CACTVS_TAUTO_COUNT>
1

> <PUBCHEM_COORDINATE_TYPE>
1
5
255

$$$$
