160923
  -OEChem-11051714482D

  5  3  0     0  0  0  0  0  0999 V2000
    3.0000    0.1464    0.0000 Se  0  0  0  0  0  0  0  0  0  0  0  0
    2.0000   -0.8536    0.0000 Cu  0  2  0  0  0  0  0  0  0  0  0  0
    2.0000    0.1464    0.0000 O   0  5  0  0  0  0  0  0  0  0  0  0
    3.0000   -0.8536    0.0000 O   0  5  0  0  0  0  0  0  0  0  0  0
    3.7071    0.8536    0.0000 O   0  0  0  0  0  0  0  0  0  0  0  0
  1  3  1  0  0  0  0
  1  4  1  0  0  0  0
  1  5  2  0  0  0  0
M  CHG  3   2   2   3  -1   4  -1
M  END
> <PUBCHEM_COMPOUND_CID>
160923

> <PUBCHEM_COMPOUND_CANONICALIZED>
1

> <PUBCHEM_CACTVS_COMPLEXITY>
18.8

> <PUBCHEM_CACTVS_HBOND_ACCEPTOR>
3

> <PUBCHEM_CACTVS_HBOND_DONOR>
0

> <PUBCHEM_CACTVS_ROTATABLE_BOND>
0

> <PUBCHEM_CACTVS_SUBSKEYS>
AAADcQAAMAAAAAAEIAAAAAAAAAAAAAAAAAAAAAAAAAAAAAAAAAAAAAAAAAAAAAAAAAAAAAAAAAAAAAAAAAAAAAAAAAAAAAAAAAAAAAAAAAAAAAAAAAAAAAAAAAAAAAAAAAAAAAAAAAAAAAAAAAAAAAAAAA==

> <PUBCHEM_IUPAC_OPENEYE_NAME>
copper;selenite

> <PUBCHEM_IUPAC_CAS_NAME>
copper;selenite

> <PUBCHEM_IUPAC_NAME>
copper;selenite

> <PUBCHEM_IUPAC_SYSTEMATIC_NAME>
copper;selenite

> <PUBCHEM_IUPAC_TRADITIONAL_NAME>
cupric;selenite

> <PUBCHEM_IUPAC_INCHI>
InChI=1S/Cu.H2O3Se/c;1-4(2)3/h;(H2,1,2,3)/q+2;/p-2

> <PUBCHEM_IUPAC_INCHIKEY>
JNRBLFVQPTZFAG-UHFFFAOYSA-L

> <PUBCHEM_EXACT_MASS>
190.831

> <PUBCHEM_MOLECULAR_FORMULA>
CuO3Se

> <PUBCHEM_MOLECULAR_WEIGHT>
190.514

> <PUBCHEM_OPENEYE_CAN_SMILES>
[O-][Se](=O)[O-].[Cu+2]

> <PUBCHEM_OPENEYE_ISO_SMILES>
[O-][Se](=O)[O-].[Cu+2]

> <PUBCHEM_CACTVS_TPSA>
63.2

> <PUBCHEM_MONOISOTOPIC_WEIGHT>
190.831

> <PUBCHEM_TOTAL_CHARGE>
0

> <PUBCHEM_HEAVY_ATOM_COUNT>
5

> <PUBCHEM_ATOM_DEF_STEREO_COUNT>
0

> <PUBCHEM_ATOM_UDEF_STEREO_COUNT>
0

> <PUBCHEM_BOND_DEF_STEREO_COUNT>
0

> <PUBCHEM_BOND_UDEF_STEREO_COUNT>
0

> <PUBCHEM_ISOTOPIC_ATOM_COUNT>
0

> <PUBCHEM_COMPONENT_COUNT>
2

> <PUBCHEM_CACTVS_TAUTO_COUNT>
1

> <PUBCHEM_COORDINATE_TYPE>
1
5
255

$$$$
