10154041
  -OEChem-11021721442D

  5  3  0     0  0  0  0  0  0999 V2000
    2.0000   -0.8536    0.0000 Ca  0  2  0  0  0  0  0  0  0  0  0  0
    3.0000    0.1464    0.0000 S   0  0  0  0  0  0  0  0  0  0  0  0
    2.0000    0.1464    0.0000 O   0  5  0  0  0  0  0  0  0  0  0  0
    3.0000   -0.8536    0.0000 O   0  5  0  0  0  0  0  0  0  0  0  0
    3.7071    0.8536    0.0000 O   0  0  0  0  0  0  0  0  0  0  0  0
  2  3  1  0  0  0  0
  2  4  1  0  0  0  0
  2  5  2  0  0  0  0
M  CHG  3   1   2   3  -1   4  -1
M  END
> <PUBCHEM_COMPOUND_CID>
10154041

> <PUBCHEM_COMPOUND_CANONICALIZED>
1

> <PUBCHEM_CACTVS_COMPLEXITY>
18.8

> <PUBCHEM_CACTVS_HBOND_ACCEPTOR>
4

> <PUBCHEM_CACTVS_HBOND_DONOR>
0

> <PUBCHEM_CACTVS_ROTATABLE_BOND>
0

> <PUBCHEM_CACTVS_SUBSKEYS>
AAADcQAAMABAAAgAAAAAAAAAAAAAAAAAAAAAAAAAAAAAAAAAAAAAAAAAAAAAAAAAAAAAAAAAAAAAAAAAACAAAAAAAAAAAAAAAAAAAAAAAAAAAAAAAAAAAAAAAAAAAAAAAAAAAAAAAAAAAAAAAAAAAAAAAA==

> <PUBCHEM_IUPAC_OPENEYE_NAME>
calcium;sulfite

> <PUBCHEM_IUPAC_CAS_NAME>
calcium;sulfite

> <PUBCHEM_IUPAC_NAME>
calcium;sulfite

> <PUBCHEM_IUPAC_SYSTEMATIC_NAME>
calcium;sulfite

> <PUBCHEM_IUPAC_TRADITIONAL_NAME>
calcium;sulfite

> <PUBCHEM_IUPAC_INCHI>
InChI=1S/Ca.H2O3S/c;1-4(2)3/h;(H2,1,2,3)/q+2;/p-2

> <PUBCHEM_IUPAC_INCHIKEY>
GBAOBIBJACZTNA-UHFFFAOYSA-L

> <PUBCHEM_EXACT_MASS>
119.919

> <PUBCHEM_MOLECULAR_FORMULA>
CaO3S

> <PUBCHEM_MOLECULAR_WEIGHT>
120.135

> <PUBCHEM_OPENEYE_CAN_SMILES>
[O-]S(=O)[O-].[Ca+2]

> <PUBCHEM_OPENEYE_ISO_SMILES>
[O-]S(=O)[O-].[Ca+2]

> <PUBCHEM_CACTVS_TPSA>
82.4

> <PUBCHEM_MONOISOTOPIC_WEIGHT>
119.919

> <PUBCHEM_TOTAL_CHARGE>
0

> <PUBCHEM_HEAVY_ATOM_COUNT>
5

> <PUBCHEM_ATOM_DEF_STEREO_COUNT>
0

> <PUBCHEM_ATOM_UDEF_STEREO_COUNT>
0

> <PUBCHEM_BOND_DEF_STEREO_COUNT>
0

> <PUBCHEM_BOND_UDEF_STEREO_COUNT>
0

> <PUBCHEM_ISOTOPIC_ATOM_COUNT>
0

> <PUBCHEM_COMPONENT_COUNT>
2

> <PUBCHEM_CACTVS_TAUTO_COUNT>
1

> <PUBCHEM_COORDINATE_TYPE>
1
5
255

$$$$
