9989219
  -OEChem-11021701582D

  3  0  0     0  0  0  0  0  0999 V2000
    3.7320    0.2500    0.0000 K   0  3  0  0  0  0  0  0  0  0  0  0
    2.0000    0.2500    0.0000 K   0  3  0  0  0  0  0  0  0  0  0  0
    2.8660   -0.2500    0.0000 O   0  6  0  0  0  0  0  0  0  0  0  0
M  CHG  3   1   1   2   1   3  -2
M  END
> <PUBCHEM_COMPOUND_CID>
9989219

> <PUBCHEM_COMPOUND_CANONICALIZED>
1

> <PUBCHEM_CACTVS_COMPLEXITY>
0

> <PUBCHEM_CACTVS_HBOND_ACCEPTOR>
1

> <PUBCHEM_CACTVS_HBOND_DONOR>
0

> <PUBCHEM_CACTVS_ROTATABLE_BOND>
0

> <PUBCHEM_CACTVS_SUBSKEYS>
AAADcQAAIAAAYAAAAAAAAAAAAAAAAAAAAAAAAAAAAAAAAAAAAAAAAAAAAAAAAAAAAAAAAAAAAAAAAAAAAAAAAAAAAAAAAAAAAAAAAAAAAAAAAAAAAAAAAAAAAAAAAAAAAAAAAAAAAAAAAAAAAAAAAAAAAA==

> <PUBCHEM_IUPAC_OPENEYE_NAME>
dipotassium;oxygen(2-)

> <PUBCHEM_IUPAC_CAS_NAME>
dipotassium;oxygen(2-)

> <PUBCHEM_IUPAC_NAME>
dipotassium;oxygen(2-)

> <PUBCHEM_IUPAC_SYSTEMATIC_NAME>
dipotassium;oxygen(2-)

> <PUBCHEM_IUPAC_TRADITIONAL_NAME>
dipotassium;oxygen(2-)

> <PUBCHEM_IUPAC_INCHI>
InChI=1S/2K.O/q2*+1;-2

> <PUBCHEM_IUPAC_INCHIKEY>
CHWRSCGUEQEHOH-UHFFFAOYSA-N

> <PUBCHEM_EXACT_MASS>
93.922

> <PUBCHEM_MOLECULAR_FORMULA>
K2O

> <PUBCHEM_MOLECULAR_WEIGHT>
94.196

> <PUBCHEM_OPENEYE_CAN_SMILES>
[O-2].[K+].[K+]

> <PUBCHEM_OPENEYE_ISO_SMILES>
[O-2].[K+].[K+]

> <PUBCHEM_CACTVS_TPSA>
1

> <PUBCHEM_MONOISOTOPIC_WEIGHT>
93.922

> <PUBCHEM_TOTAL_CHARGE>
0

> <PUBCHEM_HEAVY_ATOM_COUNT>
3

> <PUBCHEM_ATOM_DEF_STEREO_COUNT>
0

> <PUBCHEM_ATOM_UDEF_STEREO_COUNT>
0

> <PUBCHEM_BOND_DEF_STEREO_COUNT>
0

> <PUBCHEM_BOND_UDEF_STEREO_COUNT>
0

> <PUBCHEM_ISOTOPIC_ATOM_COUNT>
0

> <PUBCHEM_COMPONENT_COUNT>
3

> <PUBCHEM_CACTVS_TAUTO_COUNT>
1

> <PUBCHEM_COORDINATE_TYPE>
1
5
255

$$$$
