14804
  -OEChem-11021702002D

  3  0  0     0  0  0  0  0  0999 V2000
    2.8660   -0.2500    0.0000 S   0  6  0  0  0  0  0  0  0  0  0  0
    3.7320    0.2500    0.0000 Na  0  3  0  0  0  0  0  0  0  0  0  0
    2.0000    0.2500    0.0000 Na  0  3  0  0  0  0  0  0  0  0  0  0
M  CHG  3   1  -2   2   1   3   1
M  END
> <PUBCHEM_COMPOUND_CID>
14804

> <PUBCHEM_COMPOUND_CANONICALIZED>
1

> <PUBCHEM_CACTVS_COMPLEXITY>
0

> <PUBCHEM_CACTVS_HBOND_ACCEPTOR>
1

> <PUBCHEM_CACTVS_HBOND_DONOR>
0

> <PUBCHEM_CACTVS_ROTATABLE_BOND>
0

> <PUBCHEM_CACTVS_SUBSKEYS>
AAADcQAAADBAAAAAAAAAAAAAAAAAAAAAAAAAAAAAAAAAAAAAAAAAAAAAAAAAAAAAAAAAAAAAAAAAAAAAAAAAAAAAAAAAAAAAAAAAAAAAAAAAAAAAAAAAAAAAAAAAAAAAAAAAAAAAAAAAAAAAAAAAAAAAAA==

> <PUBCHEM_IUPAC_OPENEYE_NAME>
disodium;sulfide

> <PUBCHEM_IUPAC_CAS_NAME>
disodium;sulfide

> <PUBCHEM_IUPAC_NAME>
disodium;sulfide

> <PUBCHEM_IUPAC_SYSTEMATIC_NAME>
disodium;sulfide

> <PUBCHEM_IUPAC_TRADITIONAL_NAME>
disodium;sulfide

> <PUBCHEM_IUPAC_INCHI>
InChI=1S/2Na.S/q2*+1;-2

> <PUBCHEM_IUPAC_INCHIKEY>
GRVFOGOEDUUMBP-UHFFFAOYSA-N

> <PUBCHEM_EXACT_MASS>
77.952

> <PUBCHEM_MOLECULAR_FORMULA>
Na2S

> <PUBCHEM_MOLECULAR_WEIGHT>
78.04

> <PUBCHEM_OPENEYE_CAN_SMILES>
[Na+].[Na+].[S-2]

> <PUBCHEM_OPENEYE_ISO_SMILES>
[Na+].[Na+].[S-2]

> <PUBCHEM_CACTVS_TPSA>
1

> <PUBCHEM_MONOISOTOPIC_WEIGHT>
77.952

> <PUBCHEM_TOTAL_CHARGE>
0

> <PUBCHEM_HEAVY_ATOM_COUNT>
3

> <PUBCHEM_ATOM_DEF_STEREO_COUNT>
0

> <PUBCHEM_ATOM_UDEF_STEREO_COUNT>
0

> <PUBCHEM_BOND_DEF_STEREO_COUNT>
0

> <PUBCHEM_BOND_UDEF_STEREO_COUNT>
0

> <PUBCHEM_ISOTOPIC_ATOM_COUNT>
0

> <PUBCHEM_COMPONENT_COUNT>
3

> <PUBCHEM_CACTVS_TAUTO_COUNT>
1

> <PUBCHEM_COORDINATE_TYPE>
1
5
255

$$$$
