6330911
  -OEChem-11041703242D

  3  2  0     0  0  0  0  0  0999 V2000
    2.8660   -0.2500    0.0000 Bi  0  4  0  0  0  0  0  0  0  0  0  0
    3.7320    0.2500    0.0000 Cl  0  0  0  0  0  0  0  0  0  0  0  0
    2.0000    0.2500    0.0000 Cl  0  0  0  0  0  0  0  0  0  0  0  0
  1  2  1  0  0  0  0
  1  3  1  0  0  0  0
M  RAD  1   1   2
M  END
> <PUBCHEM_COMPOUND_CID>
6330911

> <PUBCHEM_COMPOUND_CANONICALIZED>
1

> <PUBCHEM_CACTVS_COMPLEXITY>
2.8

> <PUBCHEM_CACTVS_HBOND_ACCEPTOR>
0

> <PUBCHEM_CACTVS_HBOND_DONOR>
0

> <PUBCHEM_CACTVS_ROTATABLE_BOND>
0

> <PUBCHEM_CACTVS_SUBSKEYS>
AAADcQAAAAAGAAAAAAAAACAAAAAAAAAAAAAAAAAAAAAAAAAAAAAAAAAAAAAAAAAAAAAAAAAAAAAAAAAAAAAAAAAAAAAAAAAAAAAAAAAAAAAAAAAAAAAAAAAAAAAAAAAAAAAAAAAAAAAAAAAAAAAAAAAAAA==

> <PUBCHEM_IUPAC_OPENEYE_NAME>
dichlorobismuth

> <PUBCHEM_IUPAC_CAS_NAME>
dichlorobismuth

> <PUBCHEM_IUPAC_NAME>
dichlorobismuth

> <PUBCHEM_IUPAC_SYSTEMATIC_NAME>
bis(chloranyl)bismuth

> <PUBCHEM_IUPAC_TRADITIONAL_NAME>
dichlorobismuth

> <PUBCHEM_IUPAC_INCHI>
InChI=1S/Bi.2ClH/h;2*1H/q+2;;/p-2

> <PUBCHEM_IUPAC_INCHIKEY>
AXAIHGXEQFPLFL-UHFFFAOYSA-L

> <PUBCHEM_EXACT_MASS>
278.918

> <PUBCHEM_MOLECULAR_FORMULA>
BiCl2

> <PUBCHEM_MOLECULAR_WEIGHT>
279.88

> <PUBCHEM_OPENEYE_CAN_SMILES>
Cl[Bi]Cl

> <PUBCHEM_OPENEYE_ISO_SMILES>
Cl[Bi]Cl

> <PUBCHEM_CACTVS_TPSA>
0

> <PUBCHEM_MONOISOTOPIC_WEIGHT>
278.918

> <PUBCHEM_TOTAL_CHARGE>
0

> <PUBCHEM_HEAVY_ATOM_COUNT>
3

> <PUBCHEM_ATOM_DEF_STEREO_COUNT>
0

> <PUBCHEM_ATOM_UDEF_STEREO_COUNT>
0

> <PUBCHEM_BOND_DEF_STEREO_COUNT>
0

> <PUBCHEM_BOND_UDEF_STEREO_COUNT>
0

> <PUBCHEM_ISOTOPIC_ATOM_COUNT>
0

> <PUBCHEM_COMPONENT_COUNT>
1

> <PUBCHEM_CACTVS_TAUTO_COUNT>
1

> <PUBCHEM_COORDINATE_TYPE>
1
5
255

$$$$
