15763952
  -OEChem-11051712512D

  7  4  0     0  0  0  0  0  0999 V2000
    2.7071    1.4142    0.0000 Zn  0  2  0  0  0  0  0  0  0  0  0  0
    2.7071   -1.4142    0.0000 Zn  0  2  0  0  0  0  0  0  0  0  0  0
    2.7071    0.0000    0.0000 Si  0  0  0  0  0  0  0  0  0  0  0  0
    3.4142    0.7071    0.0000 O   0  5  0  0  0  0  0  0  0  0  0  0
    2.0000    0.7071    0.0000 O   0  5  0  0  0  0  0  0  0  0  0  0
    2.0000   -0.7071    0.0000 O   0  5  0  0  0  0  0  0  0  0  0  0
    3.4142   -0.7071    0.0000 O   0  5  0  0  0  0  0  0  0  0  0  0
  3  4  1  0  0  0  0
  3  5  1  0  0  0  0
  3  6  1  0  0  0  0
  3  7  1  0  0  0  0
M  CHG  6   1   2   2   2   4  -1   5  -1   6  -1   7  -1
M  END
> <PUBCHEM_COMPOUND_CID>
15763952

> <PUBCHEM_COMPOUND_CANONICALIZED>
1

> <PUBCHEM_CACTVS_COMPLEXITY>
19.1

> <PUBCHEM_CACTVS_HBOND_ACCEPTOR>
4

> <PUBCHEM_CACTVS_HBOND_DONOR>
0

> <PUBCHEM_CACTVS_ROTATABLE_BOND>
0

> <PUBCHEM_CACTVS_SUBSKEYS>
AAADcQAAOAgAAAACAAAAAAAAAAAAAAAAAAAAAAAAAAAAAAAAAAAAAAAAAEAAAAAAAAAAAAAAAAAAAAAAAAAAAAAAAAAAAAAAAAAAAAAAAAAAAAAAAAAAAAAAAAAAAAAAAAAAAAAAAAAAAAAAAAAAAAAAAA==

> <PUBCHEM_IUPAC_OPENEYE_NAME>
dizinc;silicate

> <PUBCHEM_IUPAC_CAS_NAME>
dizinc;silicate

> <PUBCHEM_IUPAC_NAME>
dizinc;silicate

> <PUBCHEM_IUPAC_SYSTEMATIC_NAME>
dizinc;silicate

> <PUBCHEM_IUPAC_TRADITIONAL_NAME>
dizinc;orthosilicate

> <PUBCHEM_IUPAC_INCHI>
InChI=1S/O4Si.2Zn/c1-5(2,3)4;;/q-4;2*+2

> <PUBCHEM_IUPAC_INCHIKEY>
ZOIVSVWBENBHNT-UHFFFAOYSA-N

> <PUBCHEM_EXACT_MASS>
221.812

> <PUBCHEM_MOLECULAR_FORMULA>
O4SiZn2

> <PUBCHEM_MOLECULAR_WEIGHT>
222.841

> <PUBCHEM_OPENEYE_CAN_SMILES>
[O-][Si]([O-])([O-])[O-].[Zn+2].[Zn+2]

> <PUBCHEM_OPENEYE_ISO_SMILES>
[O-][Si]([O-])([O-])[O-].[Zn+2].[Zn+2]

> <PUBCHEM_CACTVS_TPSA>
92.2

> <PUBCHEM_MONOISOTOPIC_WEIGHT>
219.815

> <PUBCHEM_TOTAL_CHARGE>
0

> <PUBCHEM_HEAVY_ATOM_COUNT>
7

> <PUBCHEM_ATOM_DEF_STEREO_COUNT>
0

> <PUBCHEM_ATOM_UDEF_STEREO_COUNT>
0

> <PUBCHEM_BOND_DEF_STEREO_COUNT>
0

> <PUBCHEM_BOND_UDEF_STEREO_COUNT>
0

> <PUBCHEM_ISOTOPIC_ATOM_COUNT>
0

> <PUBCHEM_COMPONENT_COUNT>
3

> <PUBCHEM_CACTVS_TAUTO_COUNT>
1

> <PUBCHEM_COORDINATE_TYPE>
1
5
255

$$$$
