182616
  -OEChem-11011720442D

 21 14  0     0  0  0  0  0  0999 V2000
    4.0190    0.0000    0.0000 Mn  0  2  0  0  0  0  0  0  0  0  0  0
    1.7320    3.0000    0.0000 O   0  5  0  0  0  0  0  0  0  0  0  0
    0.0000    3.0000    0.0000 O   0  5  0  0  0  0  0  0  0  0  0  0
    1.7320    6.5000    0.0000 O   0  5  0  0  0  0  0  0  0  0  0  0
    0.0000    6.5000    0.0000 O   0  5  0  0  0  0  0  0  0  0  0  0
    0.8660    1.5000    0.0000 O   0  0  0  0  0  0  0  0  0  0  0  0
    0.8660    5.0000    0.0000 O   0  0  0  0  0  0  0  0  0  0  0  0
    4.2690    2.5000    0.0000 O   0  0  0  0  0  0  0  0  0  0  0  0
    4.2690    5.0000    0.0000 O   0  0  0  0  0  0  0  0  0  0  0  0
    4.2690    7.5000    0.0000 O   0  0  0  0  0  0  0  0  0  0  0  0
    7.3429    3.7500    0.0000 O   0  0  0  0  0  0  0  0  0  0  0  0
    0.8660    2.5000    0.0000 N   0  3  0  0  0  0  0  0  0  0  0  0
    0.8660    6.0000    0.0000 N   0  3  0  0  0  0  0  0  0  0  0  0
    7.8798    4.0600    0.0000 H   0  0  0  0  0  0  0  0  0  0  0  0
    6.8059    4.0600    0.0000 H   0  0  0  0  0  0  0  0  0  0  0  0
    4.8059    7.8100    0.0000 H   0  0  0  0  0  0  0  0  0  0  0  0
    3.7320    7.8100    0.0000 H   0  0  0  0  0  0  0  0  0  0  0  0
    4.8059    5.3100    0.0000 H   0  0  0  0  0  0  0  0  0  0  0  0
    3.7320    5.3100    0.0000 H   0  0  0  0  0  0  0  0  0  0  0  0
    4.8059    2.8100    0.0000 H   0  0  0  0  0  0  0  0  0  0  0  0
    3.7320    2.8100    0.0000 H   0  0  0  0  0  0  0  0  0  0  0  0
  2 12  1  0  0  0  0
  3 12  1  0  0  0  0
  4 13  1  0  0  0  0
  5 13  1  0  0  0  0
  6 12  2  0  0  0  0
  7 13  2  0  0  0  0
  8 20  1  0  0  0  0
  8 21  1  0  0  0  0
  9 18  1  0  0  0  0
  9 19  1  0  0  0  0
 10 16  1  0  0  0  0
 10 17  1  0  0  0  0
 11 14  1  0  0  0  0
 11 15  1  0  0  0  0
M  CHG  7   1   2   2  -1   3  -1   4  -1   5  -1  12   1  13   1
M  END
> <PUBCHEM_COMPOUND_CID>
182616

> <PUBCHEM_COMPOUND_CANONICALIZED>
1

> <PUBCHEM_CACTVS_COMPLEXITY>
18.8

> <PUBCHEM_CACTVS_HBOND_ACCEPTOR>
10

> <PUBCHEM_CACTVS_HBOND_DONOR>
4

> <PUBCHEM_CACTVS_ROTATABLE_BOND>
0

> <PUBCHEM_CACTVS_SUBSKEYS>
AAADccADPAAAAABAAAAAAAAAAAAAAAAAAAAAAAAAAAAAAAAAAAAAAAAECAAAAAAAAAAAAAAAQAABAAAAAQAAAAAAAAAAAAAAAAAAAAAAAAAAAAAAAAAAAAAAAAAAAAAAAAAAAAAAAAAAAAAAAAAAAAAAAA==

> <PUBCHEM_IUPAC_OPENEYE_NAME>
manganous;dinitrate;tetrahydrate

> <PUBCHEM_IUPAC_CAS_NAME>
manganese(2+);dinitrate;tetrahydrate

> <PUBCHEM_IUPAC_NAME>
manganese(2+);dinitrate;tetrahydrate

> <PUBCHEM_IUPAC_SYSTEMATIC_NAME>
manganese(2+);dinitrate;tetrahydrate

> <PUBCHEM_IUPAC_TRADITIONAL_NAME>
manganous;dinitrate;tetrahydrate

> <PUBCHEM_IUPAC_INCHI>
InChI=1S/Mn.2NO3.4H2O/c;2*2-1(3)4;;;;/h;;;4*1H2/q+2;2*-1;;;;

> <PUBCHEM_IUPAC_INCHIKEY>
ALIMWUQMDCBYFM-UHFFFAOYSA-N

> <PUBCHEM_EXACT_MASS>
250.956

> <PUBCHEM_MOLECULAR_FORMULA>
H8MnN2O10

> <PUBCHEM_MOLECULAR_WEIGHT>
251.006

> <PUBCHEM_OPENEYE_CAN_SMILES>
[N+](=O)([O-])[O-].[N+](=O)([O-])[O-].O.O.O.O.[Mn+2]

> <PUBCHEM_OPENEYE_ISO_SMILES>
[N+](=O)([O-])[O-].[N+](=O)([O-])[O-].O.O.O.O.[Mn+2]

> <PUBCHEM_CACTVS_TPSA>
130

> <PUBCHEM_MONOISOTOPIC_WEIGHT>
250.956

> <PUBCHEM_TOTAL_CHARGE>
0

> <PUBCHEM_HEAVY_ATOM_COUNT>
13

> <PUBCHEM_ATOM_DEF_STEREO_COUNT>
0

> <PUBCHEM_ATOM_UDEF_STEREO_COUNT>
0

> <PUBCHEM_BOND_DEF_STEREO_COUNT>
0

> <PUBCHEM_BOND_UDEF_STEREO_COUNT>
0

> <PUBCHEM_ISOTOPIC_ATOM_COUNT>
0

> <PUBCHEM_COMPONENT_COUNT>
7

> <PUBCHEM_CACTVS_TAUTO_COUNT>
1

> <PUBCHEM_COORDINATE_TYPE>
1
5
255

$$$$
