5460634
  -OEChem-10081713502D

  1  0  0     0  0  0  0  0  0999 V2000
    2.0000    0.0000    0.0000 H   1  3  0  0  0  0  0  0  0  0  0  0
M  CHG  1   1   1
M  ISO  1   1   2
M  END
> <PUBCHEM_COMPOUND_CID>
5460634

> <PUBCHEM_COMPOUND_CANONICALIZED>
1

> <PUBCHEM_CACTVS_COMPLEXITY>
0

> <PUBCHEM_CACTVS_HBOND_ACCEPTOR>
0

> <PUBCHEM_CACTVS_HBOND_DONOR>
1

> <PUBCHEM_CACTVS_ROTATABLE_BOND>
0

> <PUBCHEM_CACTVS_SUBSKEYS>
AAADcQAAAAAAAAAAAAAAAAAAAAAAAAAAAAAAAAAAAAAAAAAAAAAAAAAAAAAAAAAAAAAAAAAAAAAAAAAAAAAAAAAAAAAAAAAAAAAAAAAAAAAAAAAAAAAAAAAAAAAAAAAAAAAAAAAAAAAAAAAAAAAAAAAAAA==

> <PUBCHEM_IUPAC_OPENEYE_NAME>
deuteron

> <PUBCHEM_IUPAC_CAS_NAME>
deuteron

> <PUBCHEM_IUPAC_NAME>
deuteron

> <PUBCHEM_IUPAC_SYSTEMATIC_NAME>
deuteron

> <PUBCHEM_IUPAC_TRADITIONAL_NAME>
deuteron

> <PUBCHEM_IUPAC_INCHI>
InChI=1S/p+1/i/hD

> <PUBCHEM_IUPAC_INCHIKEY>
GPRLSGONYQIRFK-DYCDLGHISA-N

> <PUBCHEM_XLOGP3_AA>
0

> <PUBCHEM_EXACT_MASS>
2.014

> <PUBCHEM_MOLECULAR_FORMULA>
H+

> <PUBCHEM_MOLECULAR_WEIGHT>
2.014

> <PUBCHEM_OPENEYE_CAN_SMILES>
[H+]

> <PUBCHEM_OPENEYE_ISO_SMILES>
[2H+]

> <PUBCHEM_CACTVS_TPSA>
0

> <PUBCHEM_MONOISOTOPIC_WEIGHT>
2.014

> <PUBCHEM_TOTAL_CHARGE>
1

> <PUBCHEM_HEAVY_ATOM_COUNT>
0

> <PUBCHEM_ATOM_DEF_STEREO_COUNT>
0

> <PUBCHEM_ATOM_UDEF_STEREO_COUNT>
0

> <PUBCHEM_BOND_DEF_STEREO_COUNT>
0

> <PUBCHEM_BOND_UDEF_STEREO_COUNT>
0

> <PUBCHEM_ISOTOPIC_ATOM_COUNT>
1

> <PUBCHEM_COMPONENT_COUNT>
1

> <PUBCHEM_CACTVS_TAUTO_COUNT>
1

> <PUBCHEM_COORDINATE_TYPE>
1
5
255

$$$$
