3609161
  -OEChem-10081712192D

  3  2  0     0  0  0  0  0  0999 V2000
    3.7320    0.5000    0.0000 O   0  0  0  0  0  0  0  0  0  0  0  0
    2.0000   -0.5000    0.0000 O   0  0  0  0  0  0  0  0  0  0  0  0
    2.8660    0.0000    0.0000 N   0  3  0  0  0  0  0  0  0  0  0  0
  1  3  2  0  0  0  0
  2  3  2  0  0  0  0
M  CHG  1   3   1
M  END
> <PUBCHEM_COMPOUND_CID>
3609161

> <PUBCHEM_COMPOUND_CANONICALIZED>
1

> <PUBCHEM_CACTVS_COMPLEXITY>
18.3

> <PUBCHEM_CACTVS_HBOND_ACCEPTOR>
2

> <PUBCHEM_CACTVS_HBOND_DONOR>
0

> <PUBCHEM_CACTVS_ROTATABLE_BOND>
0

> <PUBCHEM_CACTVS_SUBSKEYS>
AAADcQACMAAAAAAAAAAAAAAAAAAAAAAAAAAAAAAAAAAAAAAAAAAAAAAEAAAAAAAAAAAAAAAAQAABAAAAAQAAAAAAAAAAAAAAAAAAAAAAAAAAAAAAAAAAAAAAAAAAAAAAAAAAAAAAAAAAAAAAAAAAAAAAAA==

> <PUBCHEM_IUPAC_OPENEYE_NAME>
nitronium

> <PUBCHEM_IUPAC_CAS_NAME>
nitronium

> <PUBCHEM_IUPAC_NAME>
nitronium

> <PUBCHEM_IUPAC_SYSTEMATIC_NAME>
nitronium

> <PUBCHEM_IUPAC_TRADITIONAL_NAME>
nitronium

> <PUBCHEM_IUPAC_INCHI>
InChI=1S/NO2/c2-1-3/q+1

> <PUBCHEM_IUPAC_INCHIKEY>
OMBRFUXPXNIUCZ-UHFFFAOYSA-N

> <PUBCHEM_EXACT_MASS>
45.993

> <PUBCHEM_MOLECULAR_FORMULA>
NO2+

> <PUBCHEM_MOLECULAR_WEIGHT>
46.005

> <PUBCHEM_OPENEYE_CAN_SMILES>
[N+](=O)=O

> <PUBCHEM_OPENEYE_ISO_SMILES>
[N+](=O)=O

> <PUBCHEM_CACTVS_TPSA>
35.1

> <PUBCHEM_MONOISOTOPIC_WEIGHT>
45.993

> <PUBCHEM_TOTAL_CHARGE>
1

> <PUBCHEM_HEAVY_ATOM_COUNT>
3

> <PUBCHEM_ATOM_DEF_STEREO_COUNT>
0

> <PUBCHEM_ATOM_UDEF_STEREO_COUNT>
0

> <PUBCHEM_BOND_DEF_STEREO_COUNT>
0

> <PUBCHEM_BOND_UDEF_STEREO_COUNT>
0

> <PUBCHEM_ISOTOPIC_ATOM_COUNT>
0

> <PUBCHEM_COMPONENT_COUNT>
1

> <PUBCHEM_CACTVS_TAUTO_COUNT>
1

> <PUBCHEM_COORDINATE_TYPE>
1
5
255

$$$$
