21881447
  -OEChem-10091721012D

  3  1  0     0  0  0  0  0  0999 V2000
    2.0000   -0.2500    0.0000 Ga  0  1  0  0  0  0  0  0  0  0  0  0
    2.8660    0.2500    0.0000 O   0  5  0  0  0  0  0  0  0  0  0  0
    3.4030   -0.0600    0.0000 H   0  0  0  0  0  0  0  0  0  0  0  0
  2  3  1  0  0  0  0
M  CHG  2   1   3   2  -1
M  END
> <PUBCHEM_COMPOUND_CID>
21881447

> <PUBCHEM_COMPOUND_CANONICALIZED>
1

> <PUBCHEM_CACTVS_COMPLEXITY>
0

> <PUBCHEM_CACTVS_HBOND_ACCEPTOR>
1

> <PUBCHEM_CACTVS_HBOND_DONOR>
1

> <PUBCHEM_CACTVS_ROTATABLE_BOND>
0

> <PUBCHEM_CACTVS_SUBSKEYS>
AAADcQAAIAAAAAABAAAAAAAAAAAAAAAAAAAAAAAAAAAAAAAAAAAAAAAACAAAAAAAAAAAAAAAAAAAAAAAAAAAAAAAAAAAAAAAAAAAAAAAAAAAAAAAAAAAAAAAAAAAAAAAAAAAAAAAAAAAAAAAAAAAAAAAAA==

> <PUBCHEM_IUPAC_OPENEYE_NAME>
gallium;hydroxide

> <PUBCHEM_IUPAC_CAS_NAME>
gallium;hydroxide

> <PUBCHEM_IUPAC_NAME>
gallium;hydroxide

> <PUBCHEM_IUPAC_SYSTEMATIC_NAME>
gallium;hydroxide

> <PUBCHEM_IUPAC_TRADITIONAL_NAME>
gallium;hydroxide

> <PUBCHEM_IUPAC_INCHI>
InChI=1S/Ga.H2O/h;1H2/q+3;/p-1

> <PUBCHEM_IUPAC_INCHIKEY>
WPKKMSNSEHPCDS-UHFFFAOYSA-M

> <PUBCHEM_EXACT_MASS>
85.928

> <PUBCHEM_MOLECULAR_FORMULA>
GaHO+2

> <PUBCHEM_MOLECULAR_WEIGHT>
86.73

> <PUBCHEM_OPENEYE_CAN_SMILES>
[OH-].[Ga+3]

> <PUBCHEM_OPENEYE_ISO_SMILES>
[OH-].[Ga+3]

> <PUBCHEM_CACTVS_TPSA>
1

> <PUBCHEM_MONOISOTOPIC_WEIGHT>
85.928

> <PUBCHEM_TOTAL_CHARGE>
2

> <PUBCHEM_HEAVY_ATOM_COUNT>
2

> <PUBCHEM_ATOM_DEF_STEREO_COUNT>
0

> <PUBCHEM_ATOM_UDEF_STEREO_COUNT>
0

> <PUBCHEM_BOND_DEF_STEREO_COUNT>
0

> <PUBCHEM_BOND_UDEF_STEREO_COUNT>
0

> <PUBCHEM_ISOTOPIC_ATOM_COUNT>
0

> <PUBCHEM_COMPONENT_COUNT>
2

> <PUBCHEM_CACTVS_TAUTO_COUNT>
1

> <PUBCHEM_COORDINATE_TYPE>
1
5
255

$$$$
