446142
  -OEChem-10081718082D

  5  2  0     0  0  0  0  0  0999 V2000
    3.7320   -0.5000    0.0000 Au  0  3  0  0  0  0  0  0  0  0  0  0
    5.4641    0.5000    0.0000 N   0  0  0  0  0  0  0  0  0  0  0  0
    2.0000    0.5000    0.0000 N   0  0  0  0  0  0  0  0  0  0  0  0
    4.5981    0.0000    0.0000 C   0  5  0  0  0  0  0  0  0  0  0  0
    2.8660    0.0000    0.0000 C   0  5  0  0  0  0  0  0  0  0  0  0
  2  4  3  0  0  0  0
  3  5  3  0  0  0  0
M  CHG  3   1   1   4  -1   5  -1
M  END
> <PUBCHEM_COMPOUND_CID>
446142

> <PUBCHEM_COMPOUND_CANONICALIZED>
1

> <PUBCHEM_CACTVS_COMPLEXITY>
31.6

> <PUBCHEM_CACTVS_HBOND_ACCEPTOR>
4

> <PUBCHEM_CACTVS_HBOND_DONOR>
0

> <PUBCHEM_CACTVS_ROTATABLE_BOND>
0

> <PUBCHEM_CACTVS_SUBSKEYS>
AAADcQBDAAAAAAAAAAAAAgAAAAAAAAAAAAAAAAAAAAAAAAAAAAAABAAAAAAAAAAAAAAAAAAAAAAQAAAAAAAAAAAAAAAAAAAAAAAAAAAAAAAAAAAAAAAAAAAAAAAAAAAAAAAAAAAAAAAAAAAAAAAAAAAAAA==

> <PUBCHEM_IUPAC_OPENEYE_NAME>
gold(1+);dicyanide

> <PUBCHEM_IUPAC_CAS_NAME>
gold(1+);dicyanide

> <PUBCHEM_IUPAC_NAME>
gold(1+);dicyanide

> <PUBCHEM_IUPAC_SYSTEMATIC_NAME>
gold(1+);dicyanide

> <PUBCHEM_IUPAC_TRADITIONAL_NAME>
gold(1+);dicyanide

> <PUBCHEM_IUPAC_INCHI>
InChI=1S/2CN.Au/c2*1-2;/q2*-1;+1

> <PUBCHEM_IUPAC_INCHIKEY>
QGIPNVHDSSGMAA-UHFFFAOYSA-N

> <PUBCHEM_EXACT_MASS>
248.973

> <PUBCHEM_MOLECULAR_FORMULA>
C2AuN2-

> <PUBCHEM_MOLECULAR_WEIGHT>
249.003

> <PUBCHEM_OPENEYE_CAN_SMILES>
[C-]#N.[C-]#N.[Au+]

> <PUBCHEM_OPENEYE_ISO_SMILES>
[C-]#N.[C-]#N.[Au+]

> <PUBCHEM_CACTVS_TPSA>
47.6

> <PUBCHEM_MONOISOTOPIC_WEIGHT>
248.973

> <PUBCHEM_TOTAL_CHARGE>
-1

> <PUBCHEM_HEAVY_ATOM_COUNT>
5

> <PUBCHEM_ATOM_DEF_STEREO_COUNT>
0

> <PUBCHEM_ATOM_UDEF_STEREO_COUNT>
0

> <PUBCHEM_BOND_DEF_STEREO_COUNT>
0

> <PUBCHEM_BOND_UDEF_STEREO_COUNT>
0

> <PUBCHEM_ISOTOPIC_ATOM_COUNT>
0

> <PUBCHEM_COMPONENT_COUNT>
3

> <PUBCHEM_CACTVS_TAUTO_COUNT>
1

> <PUBCHEM_NONSTANDARDBOND>
1  4  6
1  5  6

> <PUBCHEM_COORDINATE_TYPE>
1
5
255

$$$$
