21948927
  -OEChem-10081718062D

  7  0  0     0  0  0  0  0  0999 V2000
    3.3660    0.8660    0.0000 Sn  0  0  0  0  0  0  0  0  0  0  0  0
    4.2320    1.3660    0.0000 Cl  0  5  0  0  0  0  0  0  0  0  0  0
    2.5000    0.3660    0.0000 Cl  0  5  0  0  0  0  0  0  0  0  0  0
    2.8660    1.7320    0.0000 Cl  0  5  0  0  0  0  0  0  0  0  0  0
    3.8660    0.0000    0.0000 Cl  0  5  0  0  0  0  0  0  0  0  0  0
    0.0000    1.8660    0.0000 Cl  0  5  0  0  0  0  0  0  0  0  0  0
    3.1160    3.7320    0.0000 Cl  0  5  0  0  0  0  0  0  0  0  0  0
M  CHG  7   1   4   2  -1   3  -1   4  -1   5  -1   6  -1   7  -1
M  END
> <PUBCHEM_COMPOUND_CID>
21948927

> <PUBCHEM_COMPOUND_CANONICALIZED>
1

> <PUBCHEM_CACTVS_COMPLEXITY>
0

> <PUBCHEM_CACTVS_HBOND_ACCEPTOR>
6

> <PUBCHEM_CACTVS_HBOND_DONOR>
0

> <PUBCHEM_CACTVS_ROTATABLE_BOND>
0

> <PUBCHEM_CACTVS_SUBSKEYS>
AAADcQAAAAAHAAAAAACAAAAAAAAAAAAAAAAAAAAAAAAAAAAAAAAAAAAAAAAAAAAAAAAAAAAAAAAAAAAAAAAAAAAAAAAAAAAAAAAAAAAAAAAAAAAAAAAAAAAAAAAAAAAAAAAAAAAAAAAAAAAAAAAAAAAAAA==

> <PUBCHEM_IUPAC_OPENEYE_NAME>
stannic;hexachloride

> <PUBCHEM_IUPAC_CAS_NAME>
tin(4+);hexachloride

> <PUBCHEM_IUPAC_NAME>
tin(4+);hexachloride

> <PUBCHEM_IUPAC_SYSTEMATIC_NAME>
tin(4+);hexachloride

> <PUBCHEM_IUPAC_TRADITIONAL_NAME>
stannic;hexachloride

> <PUBCHEM_IUPAC_INCHI>
InChI=1S/6ClH.Sn/h6*1H;/q;;;;;;+4/p-6

> <PUBCHEM_IUPAC_INCHIKEY>
ILYVYUKEIDBOHX-UHFFFAOYSA-H

> <PUBCHEM_EXACT_MASS>
331.712

> <PUBCHEM_MOLECULAR_FORMULA>
Cl6Sn-2

> <PUBCHEM_MOLECULAR_WEIGHT>
331.41

> <PUBCHEM_OPENEYE_CAN_SMILES>
[Cl-].[Cl-].[Cl-].[Cl-].[Cl-].[Cl-].[Sn+4]

> <PUBCHEM_OPENEYE_ISO_SMILES>
[Cl-].[Cl-].[Cl-].[Cl-].[Cl-].[Cl-].[Sn+4]

> <PUBCHEM_CACTVS_TPSA>
0

> <PUBCHEM_MONOISOTOPIC_WEIGHT>
329.715

> <PUBCHEM_TOTAL_CHARGE>
-2

> <PUBCHEM_HEAVY_ATOM_COUNT>
7

> <PUBCHEM_ATOM_DEF_STEREO_COUNT>
0

> <PUBCHEM_ATOM_UDEF_STEREO_COUNT>
0

> <PUBCHEM_BOND_DEF_STEREO_COUNT>
0

> <PUBCHEM_BOND_UDEF_STEREO_COUNT>
0

> <PUBCHEM_ISOTOPIC_ATOM_COUNT>
0

> <PUBCHEM_COMPONENT_COUNT>
7

> <PUBCHEM_CACTVS_TAUTO_COUNT>
1

> <PUBCHEM_COORDINATE_TYPE>
1
5
255

$$$$
