6857556
  -OEChem-10091704302D

  6  5  0     0  0  0  0  0  0999 V2000
    2.8660    0.0000    0.0000 V   0  0  0  0  0  0  0  0  0  0  0  0
    3.7320    0.5000    0.0000 O   0  0  0  0  0  0  0  0  0  0  0  0
    2.0000   -0.5000    0.0000 O   0  5  0  0  0  0  0  0  0  0  0  0
    2.3660    0.8660    0.0000 O   0  5  0  0  0  0  0  0  0  0  0  0
    3.3660   -0.8660    0.0000 O   0  0  0  0  0  0  0  0  0  0  0  0
    4.2690    0.1900    0.0000 H   0  0  0  0  0  0  0  0  0  0  0  0
  1  2  1  0  0  0  0
  1  3  1  0  0  0  0
  1  4  1  0  0  0  0
  1  5  2  0  0  0  0
  2  6  1  0  0  0  0
M  CHG  2   3  -1   4  -1
M  END
> <PUBCHEM_COMPOUND_CID>
6857556

> <PUBCHEM_COMPOUND_CANONICALIZED>
1

> <PUBCHEM_CACTVS_COMPLEXITY>
46.5

> <PUBCHEM_CACTVS_HBOND_ACCEPTOR>
4

> <PUBCHEM_CACTVS_HBOND_DONOR>
1

> <PUBCHEM_CACTVS_ROTATABLE_BOND>
0

> <PUBCHEM_CACTVS_SUBSKEYS>
AAADcQAAOAAAAAEAAAAAAAAAAAAAAAAAAAAAAAAAAAAAAAAAAAAAAAAACAAAAAAAAAAAAAAAAAAAAAAAAAAAAAAAAAAAAAAAAAAAAAAAAAAAAAAAAAAAAAAAAAAAAAAAAAAAAAAAAAAAAAAAAAAAAAAAAA==

> <PUBCHEM_IUPAC_OPENEYE_NAME>
hydroxy-dioxido-oxo-vanadium

> <PUBCHEM_IUPAC_CAS_NAME>
hydroxy-dioxido-oxovanadium

> <PUBCHEM_IUPAC_NAME>
hydroxy-dioxido-oxovanadium

> <PUBCHEM_IUPAC_SYSTEMATIC_NAME>
bis(oxidanidyl)-oxidanyl-oxidanylidene-vanadium

> <PUBCHEM_IUPAC_TRADITIONAL_NAME>
hydroxy-keto-dioxido-vanadium

> <PUBCHEM_IUPAC_INCHI>
InChI=1S/H2O.3O.V/h1H2;;;;/q;;2*-1;+1/p-1

> <PUBCHEM_IUPAC_INCHIKEY>
OFDNVQLJBWZOME-UHFFFAOYSA-M

> <PUBCHEM_EXACT_MASS>
115.931

> <PUBCHEM_MOLECULAR_FORMULA>
HO4V-2

> <PUBCHEM_MOLECULAR_WEIGHT>
115.946

> <PUBCHEM_OPENEYE_CAN_SMILES>
O[V](=O)([O-])[O-]

> <PUBCHEM_OPENEYE_ISO_SMILES>
O[V](=O)([O-])[O-]

> <PUBCHEM_CACTVS_TPSA>
83.4

> <PUBCHEM_MONOISOTOPIC_WEIGHT>
115.931

> <PUBCHEM_TOTAL_CHARGE>
-2

> <PUBCHEM_HEAVY_ATOM_COUNT>
5

> <PUBCHEM_ATOM_DEF_STEREO_COUNT>
0

> <PUBCHEM_ATOM_UDEF_STEREO_COUNT>
0

> <PUBCHEM_BOND_DEF_STEREO_COUNT>
0

> <PUBCHEM_BOND_UDEF_STEREO_COUNT>
0

> <PUBCHEM_ISOTOPIC_ATOM_COUNT>
0

> <PUBCHEM_COMPONENT_COUNT>
1

> <PUBCHEM_CACTVS_TAUTO_COUNT>
1

> <PUBCHEM_COORDINATE_TYPE>
1
5
255

$$$$
