6396316
  -OEChem-10091704212D

  7  6  0     0  0  0  0  0  0999 V2000
    3.4030    0.0000    0.0000 V   0  0  0  0  0  0  0  0  0  0  0  0
    4.2690    0.5000    0.0000 O   0  0  0  0  0  0  0  0  0  0  0  0
    2.5369   -0.5000    0.0000 O   0  0  0  0  0  0  0  0  0  0  0  0
    2.9030    0.8660    0.0000 O   0  5  0  0  0  0  0  0  0  0  0  0
    3.9030   -0.8660    0.0000 O   0  0  0  0  0  0  0  0  0  0  0  0
    4.8059    0.1900    0.0000 H   0  0  0  0  0  0  0  0  0  0  0  0
    2.0000   -0.1900    0.0000 H   0  0  0  0  0  0  0  0  0  0  0  0
  1  2  1  0  0  0  0
  1  3  1  0  0  0  0
  1  4  1  0  0  0  0
  1  5  2  0  0  0  0
  2  6  1  0  0  0  0
  3  7  1  0  0  0  0
M  CHG  1   4  -1
M  END
> <PUBCHEM_COMPOUND_CID>
6396316

> <PUBCHEM_COMPOUND_CANONICALIZED>
1

> <PUBCHEM_CACTVS_COMPLEXITY>
49.8

> <PUBCHEM_CACTVS_HBOND_ACCEPTOR>
4

> <PUBCHEM_CACTVS_HBOND_DONOR>
2

> <PUBCHEM_CACTVS_ROTATABLE_BOND>
0

> <PUBCHEM_CACTVS_SUBSKEYS>
AAADcQAAOAAAAAEAAAAAAAAAAAAAAAAAAAAAAAAAAAAAAAAAAAAAAAAACAAAAAAAAAAAAAAAAAAAAAAAAAAAAAAAAAAAAAAAAAAAAAAAAAAAAAAAAAAAAAAAAAAAAAAAAAAAAAAAAAAAAAAAAAAAAAAAAA==

> <PUBCHEM_IUPAC_OPENEYE_NAME>
dihydroxy-oxido-oxo-vanadium

> <PUBCHEM_IUPAC_CAS_NAME>
dihydroxy-oxido-oxovanadium

> <PUBCHEM_IUPAC_NAME>
dihydroxy-oxido-oxovanadium

> <PUBCHEM_IUPAC_SYSTEMATIC_NAME>
oxidanidyl-bis(oxidanyl)-oxidanylidene-vanadium

> <PUBCHEM_IUPAC_TRADITIONAL_NAME>
dihydroxy-keto-oxido-vanadium

> <PUBCHEM_IUPAC_INCHI>
InChI=1S/2H2O.2O.V/h2*1H2;;;/q;;;-1;+2/p-2

> <PUBCHEM_IUPAC_INCHIKEY>
GFEYTWVSRDLPLE-UHFFFAOYSA-L

> <PUBCHEM_EXACT_MASS>
116.939

> <PUBCHEM_MOLECULAR_FORMULA>
H2O4V-

> <PUBCHEM_MOLECULAR_WEIGHT>
116.953

> <PUBCHEM_OPENEYE_CAN_SMILES>
O[V](=O)(O)[O-]

> <PUBCHEM_OPENEYE_ISO_SMILES>
O[V](=O)(O)[O-]

> <PUBCHEM_CACTVS_TPSA>
80.6

> <PUBCHEM_MONOISOTOPIC_WEIGHT>
116.939

> <PUBCHEM_TOTAL_CHARGE>
-1

> <PUBCHEM_HEAVY_ATOM_COUNT>
5

> <PUBCHEM_ATOM_DEF_STEREO_COUNT>
0

> <PUBCHEM_ATOM_UDEF_STEREO_COUNT>
0

> <PUBCHEM_BOND_DEF_STEREO_COUNT>
0

> <PUBCHEM_BOND_UDEF_STEREO_COUNT>
0

> <PUBCHEM_ISOTOPIC_ATOM_COUNT>
0

> <PUBCHEM_COMPONENT_COUNT>
1

> <PUBCHEM_CACTVS_TAUTO_COUNT>
1

> <PUBCHEM_COORDINATE_TYPE>
1
5
255

$$$$
