16211588
  -OEChem-12092411242D

 15 10  0     0  0  0  0  0  0999 V2000
    0.8660    1.2500    0.0000 Fe  0  0  0  0  0  0  0  0  0  0  0  0
    1.7320    1.7500    0.0000 Cl  0  0  0  0  0  0  0  0  0  0  0  0
    0.0000    1.7500    0.0000 Cl  0  0  0  0  0  0  0  0  0  0  0  0
    0.8660    3.7500    0.0000 O   0  0  0  0  0  0  0  0  0  0  0  0
    4.2690    0.0000    0.0000 O   0  0  0  0  0  0  0  0  0  0  0  0
    4.2690    2.5000    0.0000 O   0  0  0  0  0  0  0  0  0  0  0  0
    4.2690    5.0000    0.0000 O   0  0  0  0  0  0  0  0  0  0  0  0
    1.4030    4.0600    0.0000 H   0  0  0  0  0  0  0  0  0  0  0  0
    0.3291    4.0600    0.0000 H   0  0  0  0  0  0  0  0  0  0  0  0
    4.8059    0.3100    0.0000 H   0  0  0  0  0  0  0  0  0  0  0  0
    3.7320    0.3100    0.0000 H   0  0  0  0  0  0  0  0  0  0  0  0
    4.8059    2.8100    0.0000 H   0  0  0  0  0  0  0  0  0  0  0  0
    3.7320    2.8100    0.0000 H   0  0  0  0  0  0  0  0  0  0  0  0
    4.8059    5.3100    0.0000 H   0  0  0  0  0  0  0  0  0  0  0  0
    3.7320    5.3100    0.0000 H   0  0  0  0  0  0  0  0  0  0  0  0
  1  2  1  0  0  0  0
  1  3  1  0  0  0  0
  4  8  1  0  0  0  0
  4  9  1  0  0  0  0
  5 10  1  0  0  0  0
  5 11  1  0  0  0  0
  6 12  1  0  0  0  0
  6 13  1  0  0  0  0
  7 14  1  0  0  0  0
  7 15  1  0  0  0  0
M  END
> <PUBCHEM_COMPOUND_CID>
16211588

> <PUBCHEM_COMPOUND_CANONICALIZED>
1

> <PUBCHEM_CACTVS_COMPLEXITY>
2.8

> <PUBCHEM_CACTVS_HBOND_ACCEPTOR>
4

> <PUBCHEM_CACTVS_HBOND_DONOR>
4

> <PUBCHEM_CACTVS_ROTATABLE_BOND>
0

> <PUBCHEM_CACTVS_SUBSKEYS>
AAADccAAOAAGAAAgAAAAAAAAAAAAAAAAAAAAAAAAAAAAAAAAAAAAAAAACAAAAAAAAAAAAAAAAAAAAAAAAAAAAAAAAAAAAAAAAAAAAAAAAAAAAAAAAAAAAAAAAAAAAAAAAAAAAAAAAAAAAAAAAAAAAAAAAA==

> <PUBCHEM_IUPAC_OPENEYE_NAME>
dichloroiron;tetrahydrate

> <PUBCHEM_IUPAC_CAS_NAME>
dichloroiron;tetrahydrate

> <PUBCHEM_IUPAC_NAME_MARKUP>
dichloroiron;tetrahydrate

> <PUBCHEM_IUPAC_NAME>
dichloroiron;tetrahydrate

> <PUBCHEM_IUPAC_SYSTEMATIC_NAME>
bis(chloranyl)iron;tetrahydrate

> <PUBCHEM_IUPAC_TRADITIONAL_NAME>
dichloroiron;tetrahydrate

> <PUBCHEM_IUPAC_INCHI>
InChI=1S/2ClH.Fe.4H2O/h2*1H;;4*1H2/q;;+2;;;;/p-2

> <PUBCHEM_IUPAC_INCHIKEY>
WSSMOXHYUFMBLS-UHFFFAOYSA-L

> <PUBCHEM_EXACT_MASS>
197.914900

> <PUBCHEM_MOLECULAR_FORMULA>
Cl2FeH8O4

> <PUBCHEM_MOLECULAR_WEIGHT>
198.81

> <PUBCHEM_OPENEYE_CAN_SMILES>
O.O.O.O.Cl[Fe]Cl

> <PUBCHEM_OPENEYE_ISO_SMILES>
O.O.O.O.Cl[Fe]Cl

> <PUBCHEM_CACTVS_TPSA>
4

> <PUBCHEM_MONOISOTOPIC_WEIGHT>
197.914900

> <PUBCHEM_TOTAL_CHARGE>
0

> <PUBCHEM_HEAVY_ATOM_COUNT>
7

> <PUBCHEM_ATOM_DEF_STEREO_COUNT>
0

> <PUBCHEM_ATOM_UDEF_STEREO_COUNT>
0

> <PUBCHEM_BOND_DEF_STEREO_COUNT>
0

> <PUBCHEM_BOND_UDEF_STEREO_COUNT>
0

> <PUBCHEM_ISOTOPIC_ATOM_COUNT>
0

> <PUBCHEM_COMPONENT_COUNT>
5

> <PUBCHEM_CACTVS_TAUTO_COUNT>
1

> <PUBCHEM_COORDINATE_TYPE>
1
5
255

$$$$
