22096591
  -OEChem-11051714422D

  5  3  0     0  0  0  0  0  0999 V2000
    2.0000   -0.8536    0.0000 Cd  0  2  0  0  0  0  0  0  0  0  0  0
    3.0000    0.1464    0.0000 Se  0  0  0  0  0  0  0  0  0  0  0  0
    2.0000    0.1464    0.0000 O   0  5  0  0  0  0  0  0  0  0  0  0
    3.0000   -0.8536    0.0000 O   0  5  0  0  0  0  0  0  0  0  0  0
    3.7071    0.8536    0.0000 O   0  0  0  0  0  0  0  0  0  0  0  0
  2  3  1  0  0  0  0
  2  4  1  0  0  0  0
  2  5  2  0  0  0  0
M  CHG  3   1   2   3  -1   4  -1
M  END
> <PUBCHEM_COMPOUND_CID>
22096591

> <PUBCHEM_COMPOUND_CANONICALIZED>
1

> <PUBCHEM_CACTVS_COMPLEXITY>
18.8

> <PUBCHEM_CACTVS_HBOND_ACCEPTOR>
3

> <PUBCHEM_CACTVS_HBOND_DONOR>
0

> <PUBCHEM_CACTVS_ROTATABLE_BOND>
0

> <PUBCHEM_CACTVS_SUBSKEYS>
AAADcQAAMAAAAAAAIAIAAAAAAAAAAAAAAAAAAAAAAAAAAAAAAAAAAAAAAAAAAAAAAAAAAAAAAAAAAAAAAAAAAAAAAAAAAAAAAAAAAAAAAAAAAAAAAAAAAAAAAAAAAAAAAAAAAAAAAAAAAAAAAAAAAAAAAA==

> <PUBCHEM_IUPAC_OPENEYE_NAME>
cadmium(2+);selenite

> <PUBCHEM_IUPAC_CAS_NAME>
cadmium(2+);selenite

> <PUBCHEM_IUPAC_NAME>
cadmium(2+);selenite

> <PUBCHEM_IUPAC_SYSTEMATIC_NAME>
cadmium(2+);selenite

> <PUBCHEM_IUPAC_TRADITIONAL_NAME>
cadmium(2+);selenite

> <PUBCHEM_IUPAC_INCHI>
InChI=1S/Cd.H2O3Se/c;1-4(2)3/h;(H2,1,2,3)/q+2;/p-2

> <PUBCHEM_IUPAC_INCHIKEY>
KBJQPSPKRGXBTH-UHFFFAOYSA-L

> <PUBCHEM_EXACT_MASS>
241.805

> <PUBCHEM_MOLECULAR_FORMULA>
CdO3Se

> <PUBCHEM_MOLECULAR_WEIGHT>
239.382

> <PUBCHEM_OPENEYE_CAN_SMILES>
[O-][Se](=O)[O-].[Cd+2]

> <PUBCHEM_OPENEYE_ISO_SMILES>
[O-][Se](=O)[O-].[Cd+2]

> <PUBCHEM_CACTVS_TPSA>
63.2

> <PUBCHEM_MONOISOTOPIC_WEIGHT>
241.805

> <PUBCHEM_TOTAL_CHARGE>
0

> <PUBCHEM_HEAVY_ATOM_COUNT>
5

> <PUBCHEM_ATOM_DEF_STEREO_COUNT>
0

> <PUBCHEM_ATOM_UDEF_STEREO_COUNT>
0

> <PUBCHEM_BOND_DEF_STEREO_COUNT>
0

> <PUBCHEM_BOND_UDEF_STEREO_COUNT>
0

> <PUBCHEM_ISOTOPIC_ATOM_COUNT>
0

> <PUBCHEM_COMPONENT_COUNT>
2

> <PUBCHEM_CACTVS_TAUTO_COUNT>
1

> <PUBCHEM_COORDINATE_TYPE>
1
5
255

$$$$
