13783125
  -OEChem-11082417492D

 86 88  0     0  0  0  0  0  0999 V2000
    3.6200    3.1350    0.0000 N   0  3  0  0  0  0  0  0  0  0  0  0
    4.4860    3.6350    0.0000 C   0  0  0  0  0  0  0  0  0  0  0  0
    2.7540    2.6350    0.0000 C   0  0  0  0  0  0  0  0  0  0  0  0
    3.1200    4.0010    0.0000 C   0  0  0  0  0  0  0  0  0  0  0  0
    4.1200    2.2690    0.0000 C   0  0  0  0  0  0  0  0  0  0  0  0
    5.3520    3.1350    0.0000 C   0  0  0  0  0  0  0  0  0  0  0  0
    1.8880    3.1350    0.0000 C   0  0  0  0  0  0  0  0  0  0  0  0
    3.6200    4.8671    0.0000 C   0  0  0  0  0  0  0  0  0  0  0  0
    3.6200    1.4030    0.0000 C   0  0  0  0  0  0  0  0  0  0  0  0
    6.2181    3.6350    0.0000 C   0  0  0  0  0  0  0  0  0  0  0  0
    1.0219    2.6350    0.0000 C   0  0  0  0  0  0  0  0  0  0  0  0
    3.1200    5.7331    0.0000 C   0  0  0  0  0  0  0  0  0  0  0  0
    4.1200    0.5369    0.0000 C   0  0  0  0  0  0  0  0  0  0  0  0
    3.6200   10.8900    0.0000 C   0  0  0  0  0  0  0  0  0  0  0  0
    3.6200   12.8900    0.0000 C   0  0  0  0  0  0  0  0  0  0  0  0
    4.6200   11.8900    0.0000 C   0  0  0  0  0  0  0  0  0  0  0  0
    2.6200   11.8900    0.0000 C   0  0  0  0  0  0  0  0  0  0  0  0
    4.4860   10.3900    0.0000 C   0  0  0  0  0  0  0  0  0  0  0  0
    4.4860   13.3900    0.0000 C   0  0  0  0  0  0  0  0  0  0  0  0
    5.1200   11.0240    0.0000 C   0  0  0  0  0  0  0  0  0  0  0  0
    2.1200   12.7560    0.0000 C   0  0  0  0  0  0  0  0  0  0  0  0
    2.7540   10.3900    0.0000 C   0  0  0  0  0  0  0  0  0  0  0  0
    2.7540   13.3900    0.0000 C   0  0  0  0  0  0  0  0  0  0  0  0
    5.1200   12.7560    0.0000 C   0  0  0  0  0  0  0  0  0  0  0  0
    2.1200   11.0240    0.0000 C   0  0  0  0  0  0  0  0  0  0  0  0
    4.4860    9.3900    0.0000 C   0  0  0  0  0  0  0  0  0  0  0  0
    4.4860   14.3900    0.0000 C   0  0  0  0  0  0  0  0  0  0  0  0
    6.1200   11.0240    0.0000 C   0  0  0  0  0  0  0  0  0  0  0  0
    1.1200   12.7560    0.0000 C   0  0  0  0  0  0  0  0  0  0  0  0
    2.7540    9.3900    0.0000 C   0  0  0  0  0  0  0  0  0  0  0  0
    2.7540   14.3900    0.0000 C   0  0  0  0  0  0  0  0  0  0  0  0
    6.1200   12.7560    0.0000 C   0  0  0  0  0  0  0  0  0  0  0  0
    1.1200   11.0240    0.0000 C   0  0  0  0  0  0  0  0  0  0  0  0
    3.6200    8.8900    0.0000 C   0  0  0  0  0  0  0  0  0  0  0  0
    3.6200   14.8900    0.0000 C   0  0  0  0  0  0  0  0  0  0  0  0
    6.6200   11.8900    0.0000 C   0  0  0  0  0  0  0  0  0  0  0  0
    0.6200   11.8900    0.0000 C   0  0  0  0  0  0  0  0  0  0  0  0
    3.6200   11.8900    0.0000 B   0  5  0  0  0  0  0  0  0  0  0  0
    4.8846    4.1100    0.0000 H   0  0  0  0  0  0  0  0  0  0  0  0
    4.0875    4.1100    0.0000 H   0  0  0  0  0  0  0  0  0  0  0  0
    2.3554    2.1601    0.0000 H   0  0  0  0  0  0  0  0  0  0  0  0
    3.1525    2.1601    0.0000 H   0  0  0  0  0  0  0  0  0  0  0  0
    2.6450    4.3996    0.0000 H   0  0  0  0  0  0  0  0  0  0  0  0
    2.6450    3.6025    0.0000 H   0  0  0  0  0  0  0  0  0  0  0  0
    4.5950    1.8705    0.0000 H   0  0  0  0  0  0  0  0  0  0  0  0
    4.5950    2.6675    0.0000 H   0  0  0  0  0  0  0  0  0  0  0  0
    4.9535    2.6601    0.0000 H   0  0  0  0  0  0  0  0  0  0  0  0
    5.7506    2.6601    0.0000 H   0  0  0  0  0  0  0  0  0  0  0  0
    2.2865    3.6100    0.0000 H   0  0  0  0  0  0  0  0  0  0  0  0
    1.4894    3.6100    0.0000 H   0  0  0  0  0  0  0  0  0  0  0  0
    4.0950    4.4685    0.0000 H   0  0  0  0  0  0  0  0  0  0  0  0
    4.0950    5.2656    0.0000 H   0  0  0  0  0  0  0  0  0  0  0  0
    3.1450    1.8015    0.0000 H   0  0  0  0  0  0  0  0  0  0  0  0
    3.1450    1.0044    0.0000 H   0  0  0  0  0  0  0  0  0  0  0  0
    6.5281    3.0981    0.0000 H   0  0  0  0  0  0  0  0  0  0  0  0
    6.7550    3.9450    0.0000 H   0  0  0  0  0  0  0  0  0  0  0  0
    5.9081    4.1720    0.0000 H   0  0  0  0  0  0  0  0  0  0  0  0
    0.7119    3.1720    0.0000 H   0  0  0  0  0  0  0  0  0  0  0  0
    0.4850    2.3250    0.0000 H   0  0  0  0  0  0  0  0  0  0  0  0
    1.3319    2.0981    0.0000 H   0  0  0  0  0  0  0  0  0  0  0  0
    3.6569    6.0431    0.0000 H   0  0  0  0  0  0  0  0  0  0  0  0
    2.8100    6.2700    0.0000 H   0  0  0  0  0  0  0  0  0  0  0  0
    2.5831    5.4231    0.0000 H   0  0  0  0  0  0  0  0  0  0  0  0
    3.5831    0.2269    0.0000 H   0  0  0  0  0  0  0  0  0  0  0  0
    4.4300    0.0000    0.0000 H   0  0  0  0  0  0  0  0  0  0  0  0
    4.6569    0.8469    0.0000 H   0  0  0  0  0  0  0  0  0  0  0  0
    5.0230   10.7000    0.0000 H   0  0  0  0  0  0  0  0  0  0  0  0
    5.0230   13.0800    0.0000 H   0  0  0  0  0  0  0  0  0  0  0  0
    4.8100   10.4871    0.0000 H   0  0  0  0  0  0  0  0  0  0  0  0
    2.4300   13.2930    0.0000 H   0  0  0  0  0  0  0  0  0  0  0  0
    2.2170   10.7000    0.0000 H   0  0  0  0  0  0  0  0  0  0  0  0
    2.2170   13.0800    0.0000 H   0  0  0  0  0  0  0  0  0  0  0  0
    4.8100   13.2930    0.0000 H   0  0  0  0  0  0  0  0  0  0  0  0
    2.4300   10.4871    0.0000 H   0  0  0  0  0  0  0  0  0  0  0  0
    5.0230    9.0800    0.0000 H   0  0  0  0  0  0  0  0  0  0  0  0
    5.0230   14.7000    0.0000 H   0  0  0  0  0  0  0  0  0  0  0  0
    6.4300   10.4871    0.0000 H   0  0  0  0  0  0  0  0  0  0  0  0
    0.8100   13.2930    0.0000 H   0  0  0  0  0  0  0  0  0  0  0  0
    2.2170    9.0800    0.0000 H   0  0  0  0  0  0  0  0  0  0  0  0
    2.2170   14.7000    0.0000 H   0  0  0  0  0  0  0  0  0  0  0  0
    6.4300   13.2930    0.0000 H   0  0  0  0  0  0  0  0  0  0  0  0
    0.8100   10.4871    0.0000 H   0  0  0  0  0  0  0  0  0  0  0  0
    3.6200    8.2700    0.0000 H   0  0  0  0  0  0  0  0  0  0  0  0
    3.6200   15.5100    0.0000 H   0  0  0  0  0  0  0  0  0  0  0  0
    7.2400   11.8900    0.0000 H   0  0  0  0  0  0  0  0  0  0  0  0
    0.0000   11.8900    0.0000 H   0  0  0  0  0  0  0  0  0  0  0  0
  1  2  1  0  0  0  0
  1  3  1  0  0  0  0
  1  4  1  0  0  0  0
  1  5  1  0  0  0  0
  2  6  1  0  0  0  0
  2 39  1  0  0  0  0
  2 40  1  0  0  0  0
  3  7  1  0  0  0  0
  3 41  1  0  0  0  0
  3 42  1  0  0  0  0
  4  8  1  0  0  0  0
  4 43  1  0  0  0  0
  4 44  1  0  0  0  0
  5  9  1  0  0  0  0
  5 45  1  0  0  0  0
  5 46  1  0  0  0  0
  6 10  1  0  0  0  0
  6 47  1  0  0  0  0
  6 48  1  0  0  0  0
  7 11  1  0  0  0  0
  7 49  1  0  0  0  0
  7 50  1  0  0  0  0
  8 12  1  0  0  0  0
  8 51  1  0  0  0  0
  8 52  1  0  0  0  0
  9 13  1  0  0  0  0
  9 53  1  0  0  0  0
  9 54  1  0  0  0  0
 10 55  1  0  0  0  0
 10 56  1  0  0  0  0
 10 57  1  0  0  0  0
 11 58  1  0  0  0  0
 11 59  1  0  0  0  0
 11 60  1  0  0  0  0
 12 61  1  0  0  0  0
 12 62  1  0  0  0  0
 12 63  1  0  0  0  0
 13 64  1  0  0  0  0
 13 65  1  0  0  0  0
 13 66  1  0  0  0  0
 14 18  2  0  0  0  0
 14 22  1  0  0  0  0
 14 38  1  0  0  0  0
 15 19  2  0  0  0  0
 15 23  1  0  0  0  0
 15 38  1  0  0  0  0
 16 20  2  0  0  0  0
 16 24  1  0  0  0  0
 16 38  1  0  0  0  0
 17 21  2  0  0  0  0
 17 25  1  0  0  0  0
 17 38  1  0  0  0  0
 18 26  1  0  0  0  0
 18 67  1  0  0  0  0
 19 27  1  0  0  0  0
 19 68  1  0  0  0  0
 20 28  1  0  0  0  0
 20 69  1  0  0  0  0
 21 29  1  0  0  0  0
 21 70  1  0  0  0  0
 22 30  2  0  0  0  0
 22 71  1  0  0  0  0
 23 31  2  0  0  0  0
 23 72  1  0  0  0  0
 24 32  2  0  0  0  0
 24 73  1  0  0  0  0
 25 33  2  0  0  0  0
 25 74  1  0  0  0  0
 26 34  2  0  0  0  0
 26 75  1  0  0  0  0
 27 35  2  0  0  0  0
 27 76  1  0  0  0  0
 28 36  2  0  0  0  0
 28 77  1  0  0  0  0
 29 37  2  0  0  0  0
 29 78  1  0  0  0  0
 30 34  1  0  0  0  0
 30 79  1  0  0  0  0
 31 35  1  0  0  0  0
 31 80  1  0  0  0  0
 32 36  1  0  0  0  0
 32 81  1  0  0  0  0
 33 37  1  0  0  0  0
 33 82  1  0  0  0  0
 34 83  1  0  0  0  0
 35 84  1  0  0  0  0
 36 85  1  0  0  0  0
 37 86  1  0  0  0  0
M  CHG  2   1   1  38  -1
M  END
> <PUBCHEM_COMPOUND_CID>
13783125

> <PUBCHEM_COMPOUND_CANONICALIZED>
1

> <PUBCHEM_CACTVS_COMPLEXITY>
382

> <PUBCHEM_CACTVS_HBOND_ACCEPTOR>
1

> <PUBCHEM_CACTVS_HBOND_DONOR>
0

> <PUBCHEM_CACTVS_ROTATABLE_BOND>
12

> <PUBCHEM_CACTVS_SUBSKEYS>
AAADcfJ+AAAAAAAAAAAAAAAAAAAAAAAAAAAwYMGAAAAAAAABVAAgHAAAAAAACADBEAQyAIMAAACAACBCAAACAAAgAAAIiAAIAIgIICKAERCEIAAggACIiAcAAAAAAAAAAAAAAAAAAAAAAAAAAAAAAAAAAA==

> <PUBCHEM_IUPAC_OPENEYE_NAME>
tetraphenylboranuide;tetrapropylammonium

> <PUBCHEM_IUPAC_CAS_NAME>
tetraphenylboranuide;tetrapropylammonium

> <PUBCHEM_IUPAC_NAME_MARKUP>
tetraphenylboranuide;tetrapropylazanium

> <PUBCHEM_IUPAC_NAME>
tetraphenylboranuide;tetrapropylazanium

> <PUBCHEM_IUPAC_SYSTEMATIC_NAME>
tetraphenylboranuide;tetrapropylazanium

> <PUBCHEM_IUPAC_TRADITIONAL_NAME>
tetraphenylboranuide;tetrapropylammonium

> <PUBCHEM_IUPAC_INCHI>
InChI=1S/C24H20B.C12H28N/c1-5-13-21(14-6-1)25(22-15-7-2-8-16-22,23-17-9-3-10-18-23)24-19-11-4-12-20-24;1-5-9-13(10-6-2,11-7-3)12-8-4/h1-20H;5-12H2,1-4H3/q-1;+1

> <PUBCHEM_IUPAC_INCHIKEY>
NIVWSJZFGKNVPN-UHFFFAOYSA-N

> <PUBCHEM_EXACT_MASS>
505.3879807

> <PUBCHEM_MOLECULAR_FORMULA>
C36H48BN

> <PUBCHEM_MOLECULAR_WEIGHT>
505.6

> <PUBCHEM_OPENEYE_CAN_SMILES>
[B-](C1=CC=CC=C1)(C2=CC=CC=C2)(C3=CC=CC=C3)C4=CC=CC=C4.CCC[N+](CCC)(CCC)CCC

> <PUBCHEM_OPENEYE_ISO_SMILES>
[B-](C1=CC=CC=C1)(C2=CC=CC=C2)(C3=CC=CC=C3)C4=CC=CC=C4.CCC[N+](CCC)(CCC)CCC

> <PUBCHEM_CACTVS_TPSA>
0

> <PUBCHEM_MONOISOTOPIC_WEIGHT>
505.3879807

> <PUBCHEM_TOTAL_CHARGE>
0

> <PUBCHEM_HEAVY_ATOM_COUNT>
38

> <PUBCHEM_ATOM_DEF_STEREO_COUNT>
0

> <PUBCHEM_ATOM_UDEF_STEREO_COUNT>
0

> <PUBCHEM_BOND_DEF_STEREO_COUNT>
0

> <PUBCHEM_BOND_UDEF_STEREO_COUNT>
0

> <PUBCHEM_ISOTOPIC_ATOM_COUNT>
0

> <PUBCHEM_COMPONENT_COUNT>
2

> <PUBCHEM_CACTVS_TAUTO_COUNT>
-1

> <PUBCHEM_COORDINATE_TYPE>
1
5
255

> <PUBCHEM_BONDANNOTATIONS>
14  18  8
14  22  8
15  19  8
15  23  8
16  20  8
16  24  8
17  21  8
17  25  8
18  26  8
19  27  8
20  28  8
21  29  8
22  30  8
23  31  8
24  32  8
25  33  8
26  34  8
27  35  8
28  36  8
29  37  8
30  34  8
31  35  8
32  36  8
33  37  8

$$$$
