9558
  -OEChem-11082417452D

 46 44  0     0  0  0  0  0  0999 V2000
    2.6350    1.7320    0.0000 F   0  0  0  0  0  0  0  0  0  0  0  0
    4.0010    1.3660    0.0000 F   0  0  0  0  0  0  0  0  0  0  0  0
    2.2690    0.3660    0.0000 F   0  0  0  0  0  0  0  0  0  0  0  0
    3.6350    0.0000    0.0000 F   0  0  0  0  0  0  0  0  0  0  0  0
    3.1350    6.8671    0.0000 N   0  3  0  0  0  0  0  0  0  0  0  0
    4.0010    7.3671    0.0000 C   0  0  0  0  0  0  0  0  0  0  0  0
    2.2690    6.3671    0.0000 C   0  0  0  0  0  0  0  0  0  0  0  0
    2.6350    7.7331    0.0000 C   0  0  0  0  0  0  0  0  0  0  0  0
    3.6350    6.0010    0.0000 C   0  0  0  0  0  0  0  0  0  0  0  0
    4.8671    6.8671    0.0000 C   0  0  0  0  0  0  0  0  0  0  0  0
    1.4030    6.8671    0.0000 C   0  0  0  0  0  0  0  0  0  0  0  0
    3.1350    8.5991    0.0000 C   0  0  0  0  0  0  0  0  0  0  0  0
    3.1350    5.1350    0.0000 C   0  0  0  0  0  0  0  0  0  0  0  0
    5.7331    7.3671    0.0000 C   0  0  0  0  0  0  0  0  0  0  0  0
    0.5369    6.3671    0.0000 C   0  0  0  0  0  0  0  0  0  0  0  0
    2.6350    9.4651    0.0000 C   0  0  0  0  0  0  0  0  0  0  0  0
    3.6350    4.2690    0.0000 C   0  0  0  0  0  0  0  0  0  0  0  0
    3.1350    0.8660    0.0000 B   0  5  0  0  0  0  0  0  0  0  0  0
    4.3996    7.8420    0.0000 H   0  0  0  0  0  0  0  0  0  0  0  0
    3.6025    7.8420    0.0000 H   0  0  0  0  0  0  0  0  0  0  0  0
    1.8705    5.8921    0.0000 H   0  0  0  0  0  0  0  0  0  0  0  0
    2.6675    5.8921    0.0000 H   0  0  0  0  0  0  0  0  0  0  0  0
    2.1601    8.1316    0.0000 H   0  0  0  0  0  0  0  0  0  0  0  0
    2.1601    7.3346    0.0000 H   0  0  0  0  0  0  0  0  0  0  0  0
    4.1100    5.6025    0.0000 H   0  0  0  0  0  0  0  0  0  0  0  0
    4.1100    6.3996    0.0000 H   0  0  0  0  0  0  0  0  0  0  0  0
    4.4685    6.3921    0.0000 H   0  0  0  0  0  0  0  0  0  0  0  0
    5.2656    6.3921    0.0000 H   0  0  0  0  0  0  0  0  0  0  0  0
    1.8015    7.3420    0.0000 H   0  0  0  0  0  0  0  0  0  0  0  0
    1.0044    7.3420    0.0000 H   0  0  0  0  0  0  0  0  0  0  0  0
    3.6100    8.2006    0.0000 H   0  0  0  0  0  0  0  0  0  0  0  0
    3.6100    8.9976    0.0000 H   0  0  0  0  0  0  0  0  0  0  0  0
    2.6601    5.5335    0.0000 H   0  0  0  0  0  0  0  0  0  0  0  0
    2.6601    4.7365    0.0000 H   0  0  0  0  0  0  0  0  0  0  0  0
    6.0431    6.8301    0.0000 H   0  0  0  0  0  0  0  0  0  0  0  0
    6.2700    7.6771    0.0000 H   0  0  0  0  0  0  0  0  0  0  0  0
    5.4231    7.9040    0.0000 H   0  0  0  0  0  0  0  0  0  0  0  0
    0.2269    6.9040    0.0000 H   0  0  0  0  0  0  0  0  0  0  0  0
    0.0000    6.0571    0.0000 H   0  0  0  0  0  0  0  0  0  0  0  0
    0.8469    5.8301    0.0000 H   0  0  0  0  0  0  0  0  0  0  0  0
    3.1720    9.7751    0.0000 H   0  0  0  0  0  0  0  0  0  0  0  0
    2.3250   10.0021    0.0000 H   0  0  0  0  0  0  0  0  0  0  0  0
    2.0981    9.1551    0.0000 H   0  0  0  0  0  0  0  0  0  0  0  0
    3.0981    3.9590    0.0000 H   0  0  0  0  0  0  0  0  0  0  0  0
    3.9450    3.7320    0.0000 H   0  0  0  0  0  0  0  0  0  0  0  0
    4.1720    4.5790    0.0000 H   0  0  0  0  0  0  0  0  0  0  0  0
  1 18  1  0  0  0  0
  2 18  1  0  0  0  0
  3 18  1  0  0  0  0
  4 18  1  0  0  0  0
  5  6  1  0  0  0  0
  5  7  1  0  0  0  0
  5  8  1  0  0  0  0
  5  9  1  0  0  0  0
  6 10  1  0  0  0  0
  6 19  1  0  0  0  0
  6 20  1  0  0  0  0
  7 11  1  0  0  0  0
  7 21  1  0  0  0  0
  7 22  1  0  0  0  0
  8 12  1  0  0  0  0
  8 23  1  0  0  0  0
  8 24  1  0  0  0  0
  9 13  1  0  0  0  0
  9 25  1  0  0  0  0
  9 26  1  0  0  0  0
 10 14  1  0  0  0  0
 10 27  1  0  0  0  0
 10 28  1  0  0  0  0
 11 15  1  0  0  0  0
 11 29  1  0  0  0  0
 11 30  1  0  0  0  0
 12 16  1  0  0  0  0
 12 31  1  0  0  0  0
 12 32  1  0  0  0  0
 13 17  1  0  0  0  0
 13 33  1  0  0  0  0
 13 34  1  0  0  0  0
 14 35  1  0  0  0  0
 14 36  1  0  0  0  0
 14 37  1  0  0  0  0
 15 38  1  0  0  0  0
 15 39  1  0  0  0  0
 15 40  1  0  0  0  0
 16 41  1  0  0  0  0
 16 42  1  0  0  0  0
 16 43  1  0  0  0  0
 17 44  1  0  0  0  0
 17 45  1  0  0  0  0
 17 46  1  0  0  0  0
M  CHG  2   5   1  18  -1
M  END
> <PUBCHEM_COMPOUND_CID>
9558

> <PUBCHEM_COMPOUND_CANONICALIZED>
1

> <PUBCHEM_CACTVS_COMPLEXITY>
99.3

> <PUBCHEM_CACTVS_HBOND_ACCEPTOR>
5

> <PUBCHEM_CACTVS_HBOND_DONOR>
0

> <PUBCHEM_CACTVS_ROTATABLE_BOND>
8

> <PUBCHEM_CACTVS_SUBSKEYS>
AAADceJyAcAAAAAAAAAAAAAAAAAAAAAAAAAAAAAAAAAAAAAAAAAEHAAAAAAACADBAAQCAAMAAAAAAAAAAAAAAAAAAAAAAAAIAAAAAAAAAAAEAAAAAACAAAAAAAAAAAAAAAAAAAAAAAAAAAAAAAAAAAAAAA==

> <PUBCHEM_IUPAC_OPENEYE_NAME>
tetrapropylammonium;tetrafluoroborate

> <PUBCHEM_IUPAC_CAS_NAME>
tetrapropylammonium;tetrafluoroborate

> <PUBCHEM_IUPAC_NAME_MARKUP>
tetrapropylazanium;tetrafluoroborate

> <PUBCHEM_IUPAC_NAME>
tetrapropylazanium;tetrafluoroborate

> <PUBCHEM_IUPAC_SYSTEMATIC_NAME>
tetrapropylazanium;tetrafluoroborate

> <PUBCHEM_IUPAC_TRADITIONAL_NAME>
tetrapropylammonium;tetrafluoroborate

> <PUBCHEM_IUPAC_INCHI>
InChI=1S/C12H28N.BF4/c1-5-9-13(10-6-2,11-7-3)12-8-4;2-1(3,4)5/h5-12H2,1-4H3;/q+1;-1

> <PUBCHEM_IUPAC_INCHIKEY>
ADADJCUTHQJPCB-UHFFFAOYSA-N

> <PUBCHEM_EXACT_MASS>
273.2250927

> <PUBCHEM_MOLECULAR_FORMULA>
C12H28BF4N

> <PUBCHEM_MOLECULAR_WEIGHT>
273.16

> <PUBCHEM_OPENEYE_CAN_SMILES>
[B-](F)(F)(F)F.CCC[N+](CCC)(CCC)CCC

> <PUBCHEM_OPENEYE_ISO_SMILES>
[B-](F)(F)(F)F.CCC[N+](CCC)(CCC)CCC

> <PUBCHEM_CACTVS_TPSA>
0

> <PUBCHEM_MONOISOTOPIC_WEIGHT>
273.2250927

> <PUBCHEM_TOTAL_CHARGE>
0

> <PUBCHEM_HEAVY_ATOM_COUNT>
18

> <PUBCHEM_ATOM_DEF_STEREO_COUNT>
0

> <PUBCHEM_ATOM_UDEF_STEREO_COUNT>
0

> <PUBCHEM_BOND_DEF_STEREO_COUNT>
0

> <PUBCHEM_BOND_UDEF_STEREO_COUNT>
0

> <PUBCHEM_ISOTOPIC_ATOM_COUNT>
0

> <PUBCHEM_COMPONENT_COUNT>
2

> <PUBCHEM_CACTVS_TAUTO_COUNT>
-1

> <PUBCHEM_COORDINATE_TYPE>
1
5
255

$$$$
