159603214
  -OEChem-11142417102D

  8  5  0     0  0  0  0  0  0999 V2000
    2.0000    0.2500    0.0000 K   0  3  0  0  0  0  0  0  0  0  0  0
    8.0622   -0.2500    0.0000 K   0  3  0  0  0  0  0  0  0  0  0  0
    4.5981   -0.2500    0.0000 S   0  0  0  0  0  0  0  0  0  0  0  0
    5.4641    0.2500    0.0000 S   0  0  0  0  0  0  0  0  0  0  0  0
    3.7320    0.2500    0.0000 S   0  0  0  0  0  0  0  0  0  0  0  0
    6.3301   -0.2500    0.0000 S   0  0  0  0  0  0  0  0  0  0  0  0
    2.8660   -0.2500    0.0000 S   0  5  0  0  0  0  0  0  0  0  0  0
    7.1962    0.2500    0.0000 S   0  5  0  0  0  0  0  0  0  0  0  0
  3  4  1  0  0  0  0
  3  5  1  0  0  0  0
  4  6  1  0  0  0  0
  5  7  1  0  0  0  0
  6  8  1  0  0  0  0
M  CHG  4   1   1   2   1   7  -1   8  -1
M  END
> <PUBCHEM_COMPOUND_CID>
159603214

> <PUBCHEM_COMPOUND_CANONICALIZED>
1

> <PUBCHEM_CACTVS_COMPLEXITY>
12

> <PUBCHEM_CACTVS_HBOND_ACCEPTOR>
6

> <PUBCHEM_CACTVS_HBOND_DONOR>
0

> <PUBCHEM_CACTVS_ROTATABLE_BOND>
1

> <PUBCHEM_CACTVS_SUBSKEYS>
AAADcQAAAABwYAAAAAAAAAAAAAAAAAAAAAAAAAAAAAAAAAAAAAAAAAAAAAAAAAAAAAAAAAAAAAAAAAAAAAAAAAAAAAAAAAAAAAAAAAAAAAAAAAAAAAAAAAAAAAAAAAAAAAAAAAAAAAAAAAAAAAAAAAAAAA==

> <PUBCHEM_IUPAC_INCHI>
InChI=1S/2K.H2S6/c;;1-3-5-6-4-2/h;;1-2H/q2*+1;/p-2

> <PUBCHEM_IUPAC_INCHIKEY>
MLTFKGMBKYUKHW-UHFFFAOYSA-L

> <PUBCHEM_EXACT_MASS>
269.7598400

> <PUBCHEM_MOLECULAR_FORMULA>
K2S6

> <PUBCHEM_MOLECULAR_WEIGHT>
270.6

> <PUBCHEM_OPENEYE_CAN_SMILES>
[S-]SSSS[S-].[K+].[K+]

> <PUBCHEM_OPENEYE_ISO_SMILES>
[S-]SSSS[S-].[K+].[K+]

> <PUBCHEM_CACTVS_TPSA>
103

> <PUBCHEM_MONOISOTOPIC_WEIGHT>
269.7598400

> <PUBCHEM_TOTAL_CHARGE>
0

> <PUBCHEM_HEAVY_ATOM_COUNT>
8

> <PUBCHEM_ATOM_DEF_STEREO_COUNT>
0

> <PUBCHEM_ATOM_UDEF_STEREO_COUNT>
0

> <PUBCHEM_BOND_DEF_STEREO_COUNT>
0

> <PUBCHEM_BOND_UDEF_STEREO_COUNT>
0

> <PUBCHEM_ISOTOPIC_ATOM_COUNT>
0

> <PUBCHEM_COMPONENT_COUNT>
3

> <PUBCHEM_CACTVS_TAUTO_COUNT>
-1

> <PUBCHEM_COORDINATE_TYPE>
1
5
255

$$$$
