13932121
  -OEChem-11082417582D

  5  3  0     0  0  0  0  0  0999 V2000
    2.0000   -0.8536    0.0000 Mn  0  2  0  0  0  0  0  0  0  0  0  0
    3.0000    0.1464    0.0000 Si  0  0  0  0  0  0  0  0  0  0  0  0
    2.0000    0.1464    0.0000 O   0  5  0  0  0  0  0  0  0  0  0  0
    3.0000   -0.8536    0.0000 O   0  5  0  0  0  0  0  0  0  0  0  0
    3.7071    0.8536    0.0000 O   0  0  0  0  0  0  0  0  0  0  0  0
  2  3  1  0  0  0  0
  2  4  1  0  0  0  0
  2  5  2  0  0  0  0
M  CHG  3   1   2   3  -1   4  -1
M  END
> <PUBCHEM_COMPOUND_CID>
13932121

> <PUBCHEM_COMPOUND_CANONICALIZED>
1

> <PUBCHEM_CACTVS_COMPLEXITY>
18.8

> <PUBCHEM_CACTVS_HBOND_ACCEPTOR>
3

> <PUBCHEM_CACTVS_HBOND_DONOR>
0

> <PUBCHEM_CACTVS_ROTATABLE_BOND>
0

> <PUBCHEM_CACTVS_SUBSKEYS>
AAADcQAAMAgAAABAAAAAAAAAAAAAAAAAAAAAAAAAAAAAAAAAAAAAAAAAAEAAAAAAAAAAAAAAAAAAAAAAAAAAAAAAAAAAAAAAAAAAAAAAAAAAAAAAAAAAAAAAAAAAAAAAAAAAAAAAAAAAAAAAAAAAAAAAAA==

> <PUBCHEM_IUPAC_OPENEYE_NAME>
manganous;dioxido(oxo)silane

> <PUBCHEM_IUPAC_CAS_NAME>
dioxido(oxo)silane;manganese(2+)

> <PUBCHEM_IUPAC_NAME_MARKUP>
dioxido(oxo)silane;manganese(2+)

> <PUBCHEM_IUPAC_NAME>
dioxido(oxo)silane;manganese(2+)

> <PUBCHEM_IUPAC_SYSTEMATIC_NAME>
bis(oxidanidyl)-oxidanylidene-silane;manganese(2+)

> <PUBCHEM_IUPAC_TRADITIONAL_NAME>
manganous;keto(dioxido)silane

> <PUBCHEM_IUPAC_INCHI>
InChI=1S/Mn.O3Si/c;1-4(2)3/q+2;-2

> <PUBCHEM_IUPAC_INCHIKEY>
ASTZLJPZXLHCSM-UHFFFAOYSA-N

> <PUBCHEM_EXACT_MASS>
130.899713

> <PUBCHEM_MOLECULAR_FORMULA>
MnO3Si

> <PUBCHEM_MOLECULAR_WEIGHT>
131.021

> <PUBCHEM_OPENEYE_CAN_SMILES>
[O-][Si](=O)[O-].[Mn+2]

> <PUBCHEM_OPENEYE_ISO_SMILES>
[O-][Si](=O)[O-].[Mn+2]

> <PUBCHEM_CACTVS_TPSA>
63.2

> <PUBCHEM_MONOISOTOPIC_WEIGHT>
130.899713

> <PUBCHEM_TOTAL_CHARGE>
0

> <PUBCHEM_HEAVY_ATOM_COUNT>
5

> <PUBCHEM_ATOM_DEF_STEREO_COUNT>
0

> <PUBCHEM_ATOM_UDEF_STEREO_COUNT>
0

> <PUBCHEM_BOND_DEF_STEREO_COUNT>
0

> <PUBCHEM_BOND_UDEF_STEREO_COUNT>
0

> <PUBCHEM_ISOTOPIC_ATOM_COUNT>
0

> <PUBCHEM_COMPONENT_COUNT>
2

> <PUBCHEM_CACTVS_TAUTO_COUNT>
-1

> <PUBCHEM_COORDINATE_TYPE>
1
5
255

$$$$
