10879
  -OEChem-10091703422D

  5  4  0     0  0  0  0  0  0999 V2000
    2.5369    0.0000    0.0000 Al  0  5  0  0  0  0  0  0  0  0  0  0
    3.0739    0.3100    0.0000 H   0  0  0  0  0  0  0  0  0  0  0  0
    2.0000   -0.3100    0.0000 H   0  0  0  0  0  0  0  0  0  0  0  0
    2.2269    0.5369    0.0000 H   0  0  0  0  0  0  0  0  0  0  0  0
    2.8469   -0.5369    0.0000 H   0  0  0  0  0  0  0  0  0  0  0  0
  1  2  1  0  0  0  0
  1  3  1  0  0  0  0
  1  4  1  0  0  0  0
  1  5  1  0  0  0  0
M  CHG  1   1  -1
M  END
> <PUBCHEM_COMPOUND_CID>
10879

> <PUBCHEM_COMPOUND_CANONICALIZED>
1

> <PUBCHEM_CACTVS_COMPLEXITY>
0

> <PUBCHEM_CACTVS_HBOND_ACCEPTOR>
1

> <PUBCHEM_CACTVS_HBOND_DONOR>
0

> <PUBCHEM_CACTVS_ROTATABLE_BOND>
0

> <PUBCHEM_CACTVS_SUBSKEYS>
AAADcYAAAAAAABAAAAAAAAAAAAAAAAAAAAAAAAAAAAAAAAAAAAAAAAAAAAIAAAAAAAAAAAAAAAAAAAAAAAAAAAAAAAAAAAAAAAAAAAAAAAAAAAAAAAAAAAAAAAAAAAAAAAAAAAAAAAAAAAAAAAAAAAAAAA==

> <PUBCHEM_IUPAC_OPENEYE_NAME>
alumanuide

> <PUBCHEM_IUPAC_CAS_NAME>
alumanuide

> <PUBCHEM_IUPAC_NAME>
alumanuide

> <PUBCHEM_IUPAC_SYSTEMATIC_NAME>
alumanuide

> <PUBCHEM_IUPAC_TRADITIONAL_NAME>
alumanuide

> <PUBCHEM_IUPAC_INCHI>
InChI=1S/Al.4H/q-1;;;;

> <PUBCHEM_IUPAC_INCHIKEY>
WVZWSVHLGBNEIG-UHFFFAOYSA-N

> <PUBCHEM_EXACT_MASS>
31.013

> <PUBCHEM_MOLECULAR_FORMULA>
AlH4-

> <PUBCHEM_MOLECULAR_WEIGHT>
31.014

> <PUBCHEM_OPENEYE_CAN_SMILES>
[AlH4-]

> <PUBCHEM_OPENEYE_ISO_SMILES>
[AlH4-]

> <PUBCHEM_CACTVS_TPSA>
0

> <PUBCHEM_MONOISOTOPIC_WEIGHT>
31.013

> <PUBCHEM_TOTAL_CHARGE>
-1

> <PUBCHEM_HEAVY_ATOM_COUNT>
1

> <PUBCHEM_ATOM_DEF_STEREO_COUNT>
0

> <PUBCHEM_ATOM_UDEF_STEREO_COUNT>
0

> <PUBCHEM_BOND_DEF_STEREO_COUNT>
0

> <PUBCHEM_BOND_UDEF_STEREO_COUNT>
0

> <PUBCHEM_ISOTOPIC_ATOM_COUNT>
0

> <PUBCHEM_COMPONENT_COUNT>
1

> <PUBCHEM_CACTVS_TAUTO_COUNT>
1

> <PUBCHEM_COORDINATE_TYPE>
1
5
255

$$$$
