25470
  -OEChem-10081719152D

  5  4  0     0  0  0  0  0  0999 V2000
    2.8660    0.0000    0.0000 Sb  0  0  0  0  0  0  0  0  0  0  0  0
    3.7320    0.5000    0.0000 O   0  5  0  0  0  0  0  0  0  0  0  0
    2.0000   -0.5000    0.0000 O   0  5  0  0  0  0  0  0  0  0  0  0
    2.3660    0.8660    0.0000 O   0  5  0  0  0  0  0  0  0  0  0  0
    3.3660   -0.8660    0.0000 O   0  0  0  0  0  0  0  0  0  0  0  0
  1  2  1  0  0  0  0
  1  3  1  0  0  0  0
  1  4  1  0  0  0  0
  1  5  2  0  0  0  0
M  CHG  3   2  -1   3  -1   4  -1
M  END
> <PUBCHEM_COMPOUND_CID>
25470

> <PUBCHEM_COMPOUND_CANONICALIZED>
1

> <PUBCHEM_CACTVS_COMPLEXITY>
36.8

> <PUBCHEM_CACTVS_HBOND_ACCEPTOR>
4

> <PUBCHEM_CACTVS_HBOND_DONOR>
0

> <PUBCHEM_CACTVS_ROTATABLE_BOND>
0

> <PUBCHEM_CACTVS_SUBSKEYS>
AAADcQAAOAAAAAAAAABAAAAAAAAAAAAAAAAAAAAAAAAAAAAAAAAAAAAAAAAAAAAAAAAAAAAAAAAAAAAAAAAAAAAAAAAAAAAAAAAAAAAAAAAAAAAAAAAAAAAAAAAAAAAAAAAAAAAAAAAAAAAAAAAAAAAAAA==

> <PUBCHEM_IUPAC_OPENEYE_NAME>
stiborate

> <PUBCHEM_IUPAC_CAS_NAME>
stiborate

> <PUBCHEM_IUPAC_NAME>
stiborate

> <PUBCHEM_IUPAC_SYSTEMATIC_NAME>
stiborate

> <PUBCHEM_IUPAC_TRADITIONAL_NAME>
stiborate

> <PUBCHEM_IUPAC_INCHI>
InChI=1S/4O.Sb/q;3*-1;

> <PUBCHEM_IUPAC_INCHIKEY>
RBGMCBHGBSZGGM-UHFFFAOYSA-N

> <PUBCHEM_EXACT_MASS>
184.883

> <PUBCHEM_MOLECULAR_FORMULA>
O4Sb-3

> <PUBCHEM_MOLECULAR_WEIGHT>
185.756

> <PUBCHEM_OPENEYE_CAN_SMILES>
[O-][Sb](=O)([O-])[O-]

> <PUBCHEM_OPENEYE_ISO_SMILES>
[O-][Sb](=O)([O-])[O-]

> <PUBCHEM_CACTVS_TPSA>
86.2

> <PUBCHEM_MONOISOTOPIC_WEIGHT>
184.883

> <PUBCHEM_TOTAL_CHARGE>
-3

> <PUBCHEM_HEAVY_ATOM_COUNT>
5

> <PUBCHEM_ATOM_DEF_STEREO_COUNT>
0

> <PUBCHEM_ATOM_UDEF_STEREO_COUNT>
0

> <PUBCHEM_BOND_DEF_STEREO_COUNT>
0

> <PUBCHEM_BOND_UDEF_STEREO_COUNT>
0

> <PUBCHEM_ISOTOPIC_ATOM_COUNT>
0

> <PUBCHEM_COMPONENT_COUNT>
1

> <PUBCHEM_CACTVS_TAUTO_COUNT>
1

> <PUBCHEM_COORDINATE_TYPE>
1
5
255

$$$$
