8934
  -OEChem-10081723072D

 45 48  0     0  0  0  0  0  0999 V2000
    5.0000   -1.0000    0.0000 C   0  0  0  0  0  0  0  0  0  0  0  0
    5.0000    1.0000    0.0000 C   0  0  0  0  0  0  0  0  0  0  0  0
    6.0000    0.0000    0.0000 C   0  0  0  0  0  0  0  0  0  0  0  0
    4.0000    0.0000    0.0000 C   0  0  0  0  0  0  0  0  0  0  0  0
    3.5000    0.8660    0.0000 C   0  0  0  0  0  0  0  0  0  0  0  0
    4.1340   -1.5000    0.0000 C   0  0  0  0  0  0  0  0  0  0  0  0
    5.8660    1.5000    0.0000 C   0  0  0  0  0  0  0  0  0  0  0  0
    6.5000   -0.8660    0.0000 C   0  0  0  0  0  0  0  0  0  0  0  0
    3.5000   -0.8660    0.0000 C   0  0  0  0  0  0  0  0  0  0  0  0
    5.8660   -1.5000    0.0000 C   0  0  0  0  0  0  0  0  0  0  0  0
    4.1340    1.5000    0.0000 C   0  0  0  0  0  0  0  0  0  0  0  0
    6.5000    0.8660    0.0000 C   0  0  0  0  0  0  0  0  0  0  0  0
    2.5000    0.8660    0.0000 C   0  0  0  0  0  0  0  0  0  0  0  0
    4.1340   -2.5000    0.0000 C   0  0  0  0  0  0  0  0  0  0  0  0
    5.8660    2.5000    0.0000 C   0  0  0  0  0  0  0  0  0  0  0  0
    7.5000   -0.8660    0.0000 C   0  0  0  0  0  0  0  0  0  0  0  0
    2.5000   -0.8660    0.0000 C   0  0  0  0  0  0  0  0  0  0  0  0
    5.8660   -2.5000    0.0000 C   0  0  0  0  0  0  0  0  0  0  0  0
    4.1340    2.5000    0.0000 C   0  0  0  0  0  0  0  0  0  0  0  0
    7.5000    0.8660    0.0000 C   0  0  0  0  0  0  0  0  0  0  0  0
    2.0000    0.0000    0.0000 C   0  0  0  0  0  0  0  0  0  0  0  0
    5.0000    3.0000    0.0000 C   0  0  0  0  0  0  0  0  0  0  0  0
    8.0000    0.0000    0.0000 C   0  0  0  0  0  0  0  0  0  0  0  0
    5.0000   -3.0000    0.0000 C   0  0  0  0  0  0  0  0  0  0  0  0
    5.0000    0.0000    0.0000 B   0  5  0  0  0  0  0  0  0  0  0  0
    3.8100    1.4030    0.0000 H   0  0  0  0  0  0  0  0  0  0  0  0
    3.5970   -1.1900    0.0000 H   0  0  0  0  0  0  0  0  0  0  0  0
    6.4030    1.1900    0.0000 H   0  0  0  0  0  0  0  0  0  0  0  0
    6.1900   -1.4030    0.0000 H   0  0  0  0  0  0  0  0  0  0  0  0
    3.8100   -1.4030    0.0000 H   0  0  0  0  0  0  0  0  0  0  0  0
    6.4030   -1.1900    0.0000 H   0  0  0  0  0  0  0  0  0  0  0  0
    3.5970    1.1900    0.0000 H   0  0  0  0  0  0  0  0  0  0  0  0
    6.1900    1.4030    0.0000 H   0  0  0  0  0  0  0  0  0  0  0  0
    3.5970   -2.8100    0.0000 H   0  0  0  0  0  0  0  0  0  0  0  0
    2.1900    1.4030    0.0000 H   0  0  0  0  0  0  0  0  0  0  0  0
    6.4030    2.8100    0.0000 H   0  0  0  0  0  0  0  0  0  0  0  0
    7.8100   -1.4030    0.0000 H   0  0  0  0  0  0  0  0  0  0  0  0
    6.4030   -2.8100    0.0000 H   0  0  0  0  0  0  0  0  0  0  0  0
    2.1900   -1.4030    0.0000 H   0  0  0  0  0  0  0  0  0  0  0  0
    3.5970    2.8100    0.0000 H   0  0  0  0  0  0  0  0  0  0  0  0
    7.8100    1.4030    0.0000 H   0  0  0  0  0  0  0  0  0  0  0  0
    1.3800    0.0000    0.0000 H   0  0  0  0  0  0  0  0  0  0  0  0
    5.0000   -3.6200    0.0000 H   0  0  0  0  0  0  0  0  0  0  0  0
    5.0000    3.6200    0.0000 H   0  0  0  0  0  0  0  0  0  0  0  0
    8.6200    0.0000    0.0000 H   0  0  0  0  0  0  0  0  0  0  0  0
  1  6  2  0  0  0  0
  1 10  1  0  0  0  0
  1 25  1  0  0  0  0
  2  7  2  0  0  0  0
  2 11  1  0  0  0  0
  2 25  1  0  0  0  0
  3  8  2  0  0  0  0
  3 12  1  0  0  0  0
  3 25  1  0  0  0  0
  4  5  2  0  0  0  0
  4  9  1  0  0  0  0
  4 25  1  0  0  0  0
  5 13  1  0  0  0  0
  5 26  1  0  0  0  0
  6 14  1  0  0  0  0
  6 27  1  0  0  0  0
  7 15  1  0  0  0  0
  7 28  1  0  0  0  0
  8 16  1  0  0  0  0
  8 29  1  0  0  0  0
  9 17  2  0  0  0  0
  9 30  1  0  0  0  0
 10 18  2  0  0  0  0
 10 31  1  0  0  0  0
 11 19  2  0  0  0  0
 11 32  1  0  0  0  0
 12 20  2  0  0  0  0
 12 33  1  0  0  0  0
 13 21  2  0  0  0  0
 13 35  1  0  0  0  0
 14 24  2  0  0  0  0
 14 34  1  0  0  0  0
 15 22  2  0  0  0  0
 15 36  1  0  0  0  0
 16 23  2  0  0  0  0
 16 37  1  0  0  0  0
 17 21  1  0  0  0  0
 17 39  1  0  0  0  0
 18 24  1  0  0  0  0
 18 38  1  0  0  0  0
 19 22  1  0  0  0  0
 19 40  1  0  0  0  0
 20 23  1  0  0  0  0
 20 41  1  0  0  0  0
 21 42  1  0  0  0  0
 22 44  1  0  0  0  0
 23 45  1  0  0  0  0
 24 43  1  0  0  0  0
M  CHG  1  25  -1
M  END
> <PUBCHEM_COMPOUND_CID>
8934

> <PUBCHEM_COMPOUND_CANONICALIZED>
1

> <PUBCHEM_CACTVS_COMPLEXITY>
301

> <PUBCHEM_CACTVS_HBOND_ACCEPTOR>
1

> <PUBCHEM_CACTVS_HBOND_DONOR>
0

> <PUBCHEM_CACTVS_ROTATABLE_BOND>
4

> <PUBCHEM_CACTVS_SUBSKEYS>
AAADceJ4AAAAAAAAAAAAAAAAAAAAAAAAAAAwYMGAAAAAAAABVAAgGAAAAAAACACAEAAwAIAAAACAACBCAAACAAAgAAAIiAAAAIgIICKAERCAIAAggAAIiAcAAAAAAAAAAAAAAAAAAAAAAAAAAAAAAAAAAA==

> <PUBCHEM_IUPAC_OPENEYE_NAME>
tetraphenylboranuide

> <PUBCHEM_IUPAC_CAS_NAME>
tetraphenylboranuide

> <PUBCHEM_IUPAC_NAME>
tetraphenylboranuide

> <PUBCHEM_IUPAC_SYSTEMATIC_NAME>
tetraphenylboranuide

> <PUBCHEM_IUPAC_TRADITIONAL_NAME>
tetraphenylboranuide

> <PUBCHEM_IUPAC_INCHI>
InChI=1S/C24H20B/c1-5-13-21(14-6-1)25(22-15-7-2-8-16-22,23-17-9-3-10-18-23)24-19-11-4-12-20-24/h1-20H/q-1

> <PUBCHEM_IUPAC_INCHIKEY>
SVHQOIWIRUVWII-UHFFFAOYSA-N

> <PUBCHEM_EXACT_MASS>
319.166

> <PUBCHEM_MOLECULAR_FORMULA>
C24H20B-

> <PUBCHEM_MOLECULAR_WEIGHT>
319.234

> <PUBCHEM_OPENEYE_CAN_SMILES>
[B-](C1=CC=CC=C1)(C2=CC=CC=C2)(C3=CC=CC=C3)C4=CC=CC=C4

> <PUBCHEM_OPENEYE_ISO_SMILES>
[B-](C1=CC=CC=C1)(C2=CC=CC=C2)(C3=CC=CC=C3)C4=CC=CC=C4

> <PUBCHEM_CACTVS_TPSA>
0

> <PUBCHEM_MONOISOTOPIC_WEIGHT>
319.166

> <PUBCHEM_TOTAL_CHARGE>
-1

> <PUBCHEM_HEAVY_ATOM_COUNT>
25

> <PUBCHEM_ATOM_DEF_STEREO_COUNT>
0

> <PUBCHEM_ATOM_UDEF_STEREO_COUNT>
0

> <PUBCHEM_BOND_DEF_STEREO_COUNT>
0

> <PUBCHEM_BOND_UDEF_STEREO_COUNT>
0

> <PUBCHEM_ISOTOPIC_ATOM_COUNT>
0

> <PUBCHEM_COMPONENT_COUNT>
1

> <PUBCHEM_CACTVS_TAUTO_COUNT>
1

> <PUBCHEM_COORDINATE_TYPE>
1
5
255

> <PUBCHEM_BONDANNOTATIONS>
1  10  8
1  6  8
10  18  8
11  19  8
12  20  8
13  21  8
14  24  8
15  22  8
16  23  8
17  21  8
18  24  8
19  22  8
2  11  8
2  7  8
20  23  8
3  12  8
3  8  8
4  5  8
4  9  8
5  13  8
6  14  8
7  15  8
8  16  8
9  17  8

$$$$
