22061700
  -OEChem-10091721082D

  2  0  0     0  0  0  0  0  0999 V2000
    2.0000    0.0000    0.0000 Lu  0  1  0  0  0  0  0  0  0  0  0  0
    3.0000    0.0000    0.0000 F   0  5  0  0  0  0  0  0  0  0  0  0
M  CHG  2   1   3   2  -1
M  END
> <PUBCHEM_COMPOUND_CID>
22061700

> <PUBCHEM_COMPOUND_CANONICALIZED>
1

> <PUBCHEM_CACTVS_COMPLEXITY>
0

> <PUBCHEM_CACTVS_HBOND_ACCEPTOR>
1

> <PUBCHEM_CACTVS_HBOND_DONOR>
0

> <PUBCHEM_CACTVS_ROTATABLE_BOND>
0

> <PUBCHEM_CACTVS_SUBSKEYS>
AAADcQAAAQAAAAAAAAACAAAAAAAAAAAAAAAAAAAAAAAAAAAAAAAAAAAAAAAAAAAAAAAAAAAAAAAAAAAAAAAAAAAAAAAAAAAAAAAAAAAAAAAAAAAAAAAAAAAAAAAAAAAAAAAAAAAAAAAAAAAAAAAAAAAAAA==

> <PUBCHEM_IUPAC_OPENEYE_NAME>
lutetium(3+);fluoride

> <PUBCHEM_IUPAC_CAS_NAME>
lutetium(3+);fluoride

> <PUBCHEM_IUPAC_NAME>
lutetium(3+);fluoride

> <PUBCHEM_IUPAC_SYSTEMATIC_NAME>
lutetium(3+);fluoride

> <PUBCHEM_IUPAC_TRADITIONAL_NAME>
lutetium(3+);fluoride

> <PUBCHEM_IUPAC_INCHI>
InChI=1S/FH.Lu/h1H;/q;+3/p-1

> <PUBCHEM_IUPAC_INCHIKEY>
STXSVXIVVPUHTA-UHFFFAOYSA-M

> <PUBCHEM_EXACT_MASS>
193.939

> <PUBCHEM_MOLECULAR_FORMULA>
FLu+2

> <PUBCHEM_MOLECULAR_WEIGHT>
193.965

> <PUBCHEM_OPENEYE_CAN_SMILES>
[F-].[Lu+3]

> <PUBCHEM_OPENEYE_ISO_SMILES>
[F-].[Lu+3]

> <PUBCHEM_CACTVS_TPSA>
0

> <PUBCHEM_MONOISOTOPIC_WEIGHT>
193.939

> <PUBCHEM_TOTAL_CHARGE>
2

> <PUBCHEM_HEAVY_ATOM_COUNT>
2

> <PUBCHEM_ATOM_DEF_STEREO_COUNT>
0

> <PUBCHEM_ATOM_UDEF_STEREO_COUNT>
0

> <PUBCHEM_BOND_DEF_STEREO_COUNT>
0

> <PUBCHEM_BOND_UDEF_STEREO_COUNT>
0

> <PUBCHEM_ISOTOPIC_ATOM_COUNT>
0

> <PUBCHEM_COMPONENT_COUNT>
2

> <PUBCHEM_CACTVS_TAUTO_COUNT>
1

> <PUBCHEM_COORDINATE_TYPE>
1
5
255

$$$$
