21495816
  -OEChem-10091721072D

  5  3  0     0  0  0  0  0  0999 V2000
    0.7199    0.0000    0.0000 Al  0  1  0  0  0  0  0  0  0  0  0  0
    0.5369    2.5000    0.0000 O   0  0  0  0  0  0  0  0  0  0  0  0
    1.4030    3.0000    0.0000 O   0  0  0  0  0  0  0  0  0  0  0  0
    0.0000    2.8100    0.0000 H   0  0  0  0  0  0  0  0  0  0  0  0
    1.9399    2.6900    0.0000 H   0  0  0  0  0  0  0  0  0  0  0  0
  2  3  1  0  0  0  0
  2  4  1  0  0  0  0
  3  5  1  0  0  0  0
M  CHG  1   1   3
M  END
> <PUBCHEM_COMPOUND_CID>
21495816

> <PUBCHEM_COMPOUND_CANONICALIZED>
1

> <PUBCHEM_CACTVS_COMPLEXITY>
0

> <PUBCHEM_CACTVS_HBOND_ACCEPTOR>
2

> <PUBCHEM_CACTVS_HBOND_DONOR>
2

> <PUBCHEM_CACTVS_ROTATABLE_BOND>
0

> <PUBCHEM_CACTVS_SUBSKEYS>
AAADcQAAMAAAABAAAAAAAAAAAAAAAAAAAAAAAAAAAAAAAAAAAAAAAAAADAAAAAAAAAAAAAAAAAAAAAAAAAAAAAAAAAAAAAAAAAAAAAAAAAAAAAAAAAAAAAAAAAAAAAAAAAAAAAAAAAAAAAAAAAAAAAAAAA==

> <PUBCHEM_IUPAC_OPENEYE_NAME>
aluminum;hydrogen peroxide

> <PUBCHEM_IUPAC_CAS_NAME>
aluminum;hydrogen peroxide

> <PUBCHEM_IUPAC_NAME>
aluminum;hydrogen peroxide

> <PUBCHEM_IUPAC_SYSTEMATIC_NAME>
aluminum;hydrogen peroxide

> <PUBCHEM_IUPAC_TRADITIONAL_NAME>
aluminum;hydrogen peroxide

> <PUBCHEM_IUPAC_INCHI>
InChI=1S/Al.H2O2/c;1-2/h;1-2H/q+3;

> <PUBCHEM_IUPAC_INCHIKEY>
YCKRSUJTHTXEAT-UHFFFAOYSA-N

> <PUBCHEM_EXACT_MASS>
60.987

> <PUBCHEM_MOLECULAR_FORMULA>
AlH2O2+3

> <PUBCHEM_MOLECULAR_WEIGHT>
60.996

> <PUBCHEM_OPENEYE_CAN_SMILES>
OO.[Al+3]

> <PUBCHEM_OPENEYE_ISO_SMILES>
OO.[Al+3]

> <PUBCHEM_CACTVS_TPSA>
40.5

> <PUBCHEM_MONOISOTOPIC_WEIGHT>
60.987

> <PUBCHEM_TOTAL_CHARGE>
3

> <PUBCHEM_HEAVY_ATOM_COUNT>
3

> <PUBCHEM_ATOM_DEF_STEREO_COUNT>
0

> <PUBCHEM_ATOM_UDEF_STEREO_COUNT>
0

> <PUBCHEM_BOND_DEF_STEREO_COUNT>
0

> <PUBCHEM_BOND_UDEF_STEREO_COUNT>
0

> <PUBCHEM_ISOTOPIC_ATOM_COUNT>
0

> <PUBCHEM_COMPONENT_COUNT>
2

> <PUBCHEM_CACTVS_TAUTO_COUNT>
1

> <PUBCHEM_COORDINATE_TYPE>
1
5
255

$$$$
